 Gaussian 16, Revision C.01,
 Gaussian 16:  ES64L-G16RevC.01  3-Jul-2019

 -----------------------------------------
 # sp b3lyp/6-311g** Force nosymm scf=(qc)
 -----------------------------------------

 -------------------
 Title Card Required
 -------------------
 Symbolic Z-matrix:
 Charge =  0 Multiplicity = 2

                          Input orientation:
 ---------------------------------------------------------------------
 Center     Atomic      Atomic             Coordinates (Angstroms)
 Number     Number       Type             X           Y           Z
 ---------------------------------------------------------------------
      1          1           0        0.000000    0.000000    0.000000
      2          1           0       -2.400000    0.000000    0.000000
      3          9           0        1.550000    0.000000    0.000000
 ---------------------------------------------------------------------

 SCF Done:  E(UB3LYP) =  -100.846391748     a.u. after   10 cycles

 Alpha  occ. eigenvalues --  -24.64251  -1.09956  -0.43331  -0.36315  -0.36315
 Alpha  occ. eigenvalues --   -0.36040
 Alpha virt. eigenvalues --   -0.13854   0.23241   0.27002   0.94202   0.94202
 Alpha virt. eigenvalues --    1.02420   1.08515   1.21454   1.21454   1.25298
 Alpha virt. eigenvalues --    1.32394   1.32394   1.75101   2.12114   2.21313

  Beta  occ. eigenvalues --  -24.63612  -1.08254  -0.41647  -0.35705  -0.35705
  Beta virt. eigenvalues --   -0.17166  -0.08581   0.24958   0.34743   0.93983
  Beta virt. eigenvalues --    0.93983   1.03807   1.08986   1.29381   1.29381
  Beta virt. eigenvalues --    1.41012   1.41012   1.43020   1.74073   2.16101

 Mulliken charges and spin densities:
               1          2
     1  H    0.319022  -0.171062
     2  H    0.024521   0.969762
     3  F   -0.343544   0.201300
 Sum of Mulliken charges =   0.00000   1.00000

 Dipole moment (field-independent basis, Debye):
    X=             -2.8884    Y=              0.0000    Z=             -0.0000  Tot=              2.8884
 Quadrupole moment (field-independent basis, Debye-Ang):
   XX=             -9.3428   YY=             -7.3522   ZZ=             -7.3522
   XY=              0.0000   XZ=             -0.0000   YZ=             -0.0000

  Exact polarizability:      26.364      -0.000       2.183       0.000      -0.000       2.183
 Approx polarizability:      39.290      -0.000       2.106      -0.000       0.000       2.106

 ******    2 imaginary frequencies (negative Signs) ******

                      1                      2                      3
                      A                      A                      A
 Frequencies --  -1782.3234              -309.6906               942.9741
 Red. masses --      1.0480                 1.0637                 1.0240
 Frc consts  --      1.9615                 0.0601                 0.5365
 IR Inten    --      3.6586                 5.2657                85.7689

                      4
                      A
 Frequencies --    942.9741
 Red. masses --      1.0240
 Frc consts  --      0.5365
 IR Inten    --     85.7689

 - Thermochemistry -
 -------------------
 Temperature   298.150 Kelvin.  Pressure   1.00000 Atm.
 Atom     1 has atomic number  1 and mass   1.00783

 Molecular mass:    21.01405 amu.
 Principal axes and moments of inertia in atomic units:
                           1         2         3
     Eigenvalues --     0.00000  59.57879  59.57879
           X            1.00000  -0.00000   0.00000
           Y            0.00000   1.00000   0.00000
           Z            0.00000   0.00000   1.00000
 This molecule is a prolate symmetric top.
 Rotational symmetry number  1.
 Rotational temperature (Kelvin)      1.45377
 Rotational constant (GHZ):          30.291673
    2 imaginary frequencies ignored.
 Zero-point vibrational energy      11280.5 (Joules/Mol)
                                    2.69610 (Kcal/Mol)
 Vibrational temperatures:   1356.73  1356.73
          (Kelvin)

 Zero-point correction=                           0.004297 (Hartree/Particle)
 Thermal correction to Energy=                    0.006749
 Thermal correction to Enthalpy=                  0.007693
 Thermal correction to Gibbs Free Energy=        -0.015706
 Sum of electronic and zero-point Energies=           -100.842095
 Sum of electronic and thermal Energies=              -100.839643
 Sum of electronic and thermal Enthalpies=            -100.838699
 Sum of electronic and thermal Free Energies=         -100.862098

                     E (Thermal)             CV                S
                      KCal/Mol        Cal/Mol-Kelvin    Cal/Mol-Kelvin
 Total                    4.235              5.856             49.247
 Electronic               0.000              0.000              1.377
 Translational            0.889              2.981             35.068
 Rotational               0.592              1.987             12.566
 Vibrational              2.754              0.888              0.235

 Normal termination of Gaussian 16 at Fri Aug 22 16:28:38 2025.
