 Gaussian 16, Revision C.01,
 Gaussian 16:  ES64L-G16RevC.01  3-Jul-2019

 -----------------------------------------
 # sp b3lyp/6-311g** Force nosymm scf=(qc)
 -----------------------------------------

 -------------------
 Title Card Required
 -------------------
 Symbolic Z-matrix:
 Charge =  0 Multiplicity = 2

                          Input orientation:
 ---------------------------------------------------------------------
 Center     Atomic      Atomic             Coordinates (Angstroms)
 Number     Number       Type             X           Y           Z
 ---------------------------------------------------------------------
      1          1           0        0.000000    0.000000    0.000000
      2          1           0       -2.800000    0.000000    0.000000
      3          9           0        1.950000    0.000000    0.000000
 ---------------------------------------------------------------------

 SCF Done:  E(UB3LYP) =  -100.792265210     a.u. after   13 cycles

 Alpha  occ. eigenvalues --  -24.67774  -1.14078  -0.46727  -0.39365  -0.39365
 Alpha  occ. eigenvalues --   -0.34345
 Alpha virt. eigenvalues --   -0.14042   0.23253   0.30876   0.90036   0.94932
 Alpha virt. eigenvalues --    0.94932   1.06063   1.23226   1.23226   1.24577
 Alpha virt. eigenvalues --    1.34823   1.34823   1.62929   2.14167   2.28814

  Beta  occ. eigenvalues --  -24.65492  -1.07720  -0.38161  -0.37121  -0.37121
  Beta virt. eigenvalues --   -0.20442  -0.08822   0.23816   0.35986   0.91543
  Beta virt. eigenvalues --    0.95429   0.95429   1.08448   1.22438   1.22438
  Beta virt. eigenvalues --    1.43152   1.43240   1.43240   1.57048   2.13061

 Mulliken charges and spin densities:
               1          2
     1  H    0.198201  -0.703320
     2  H    0.009499   0.985904
     3  F   -0.207700   0.717416
 Sum of Mulliken charges =   0.00000   1.00000

 Dipole moment (field-independent basis, Debye):
    X=             -2.1226    Y=              0.0000    Z=             -0.0000  Tot=              2.1226
 Quadrupole moment (field-independent basis, Debye-Ang):
   XX=             -9.7232   YY=             -7.4955   ZZ=             -7.4955
   XY=              0.0000   XZ=             -0.0000   YZ=             -0.0000

  Exact polarizability:      31.401      -0.000       2.068       0.000      -0.000       2.068
 Approx polarizability:      41.243      -0.000       1.957       0.000       0.000       1.957

 ******    2 imaginary frequencies (negative Signs) ******

                      1                      2                      3
                      A                      A                      A
 Frequencies --  -1241.9504              -277.5043               523.0476
 Red. masses --      1.0523                 1.0593                 1.0229
 Frc consts  --      0.9563                 0.0481                 0.1649
 IR Inten    --    111.8779                 5.1049                34.3641

                      4
                      A
 Frequencies --    523.0476
 Red. masses --      1.0229
 Frc consts  --      0.1649
 IR Inten    --     34.3641

 - Thermochemistry -
 -------------------
 Temperature   298.150 Kelvin.  Pressure   1.00000 Atm.
 Atom     1 has atomic number  1 and mass   1.00783

 Molecular mass:    21.01405 amu.
 Principal axes and moments of inertia in atomic units:
                           1         2         3
     Eigenvalues --     0.00000  87.13954  87.13954
           X            1.00000  -0.00000   0.00000
           Y            0.00000   1.00000   0.00000
           Z            0.00000   0.00000   1.00000
 This molecule is a prolate symmetric top.
 Rotational symmetry number  1.
 Rotational temperature (Kelvin)      0.99397
 Rotational constant (GHZ):          20.710934
    2 imaginary frequencies ignored.
 Zero-point vibrational energy       6257.0 (Joules/Mol)
                                    1.49547 (Kcal/Mol)
 Warning -- explicit consideration of   2 degrees of freedom as
           vibrations may cause significant error
 Vibrational temperatures:    752.55   752.55
          (Kelvin)

 Zero-point correction=                           0.002383 (Hartree/Particle)
 Thermal correction to Energy=                    0.005159
 Thermal correction to Enthalpy=                  0.006103
 Thermal correction to Gibbs Free Energy=        -0.018116
 Sum of electronic and zero-point Energies=           -100.789882
 Sum of electronic and thermal Energies=              -100.787106
 Sum of electronic and thermal Enthalpies=            -100.786162
 Sum of electronic and thermal Free Energies=         -100.810381

                     E (Thermal)             CV                S
                      KCal/Mol        Cal/Mol-Kelvin    Cal/Mol-Kelvin
 Total                    3.237              7.366             50.973
 Electronic               0.000              0.000              1.377
 Translational            0.889              2.981             35.068
 Rotational               0.592              1.987             13.322
 Vibrational              1.756              2.398              1.206
 Vibration     1          0.878              1.199              0.603
 Vibration     2          0.878              1.199              0.603

 Normal termination of Gaussian 16 at Fri Aug 22 16:53:59 2025.
