 Gaussian 16, Revision C.01,
 Gaussian 16:  ES64L-G16RevC.01  3-Jul-2019

 -----------------------------------------
 # sp b3lyp/6-311g** Force nosymm scf=(qc)
 -----------------------------------------

 -------------------
 Title Card Required
 -------------------
 Symbolic Z-matrix:
 Charge =  0 Multiplicity = 2

                          Input orientation:
 ---------------------------------------------------------------------
 Center     Atomic      Atomic             Coordinates (Angstroms)
 Number     Number       Type             X           Y           Z
 ---------------------------------------------------------------------
      1          1           0        0.000000    0.000000    0.000000
      2          1           0       -1.900000    0.000000    0.000000
      3          9           0        3.800000    0.000000    0.000000
 ---------------------------------------------------------------------

 SCF Done:  E(UB3LYP) =  -100.779373496     a.u. after   80 cycles

 Alpha  occ. eigenvalues --  -24.76172  -1.22072  -0.55277  -0.46448  -0.46434
 Alpha  occ. eigenvalues --   -0.32800
 Alpha virt. eigenvalues --   -0.10614   0.26083   0.32211   0.86087   0.90964
 Alpha virt. eigenvalues --    0.91459   1.00977   1.13687   1.25137   1.25137
 Alpha virt. eigenvalues --    1.37980   1.37983   1.56116   2.13939   2.37902

  Beta  occ. eigenvalues --  -24.73018  -1.13001  -0.43290  -0.43271  -0.32777
  Beta virt. eigenvalues --   -0.25929  -0.10669   0.26067   0.32247   0.92466
  Beta virt. eigenvalues --    0.92917   0.95555   1.05106   1.13668   1.25145
  Beta virt. eigenvalues --    1.25148   1.37950   1.37950   1.56121   2.14175

 Mulliken charges and spin densities:
               1          2
     1  H    0.000458  -0.798899
     2  H   -0.001445   0.798937
     3  F    0.000987   0.999962
 Sum of Mulliken charges =   0.00000   1.00000

 Dipole moment (field-independent basis, Debye):
    X=              0.0245    Y=              0.0000    Z=              0.0000  Tot=              0.0245
 Quadrupole moment (field-independent basis, Debye-Ang):
   XX=             -6.8775   YY=             -7.3139   ZZ=             -7.3137
   XY=              0.0000   XZ=              0.0000   YZ=              0.4323

  Exact polarizability:      22.729       0.000       2.245       0.000       0.233       2.245
 Approx polarizability:      28.932       0.000       2.240       0.000       0.291       2.240

 ******    2 imaginary frequencies (negative Signs) ******

                      1                      2                      3
                      A                      A                      A
 Frequencies --  -1537.1514               -40.7572               656.8848
 Red. masses --      1.0078                 1.1085                 1.0117
 Frc consts  --      1.4030                 0.0011                 0.2572
 IR Inten    --      0.0035                 0.0474                 0.0009

                      4
                      A
 Frequencies --    656.9362
 Red. masses --      1.0117
 Frc consts  --      0.2573
 IR Inten    --      0.0008

 - Thermochemistry -
 -------------------
 Temperature   298.150 Kelvin.  Pressure   1.00000 Atm.
 Atom     1 has atomic number  1 and mass   1.00783

 Molecular mass:    21.01405 amu.
 Principal axes and moments of inertia in atomic units:
                           1         2         3
     Eigenvalues --     0.00000 153.32370 153.32370
           X            1.00000  -0.00000   0.00000
           Y            0.00000   1.00000   0.00000
           Z            0.00000   0.00000   1.00000
 This molecule is a prolate symmetric top.
 Rotational symmetry number  1.
 Rotational temperature (Kelvin)      0.56491
 Rotational constant (GHZ):          11.770791
    2 imaginary frequencies ignored.
 Zero-point vibrational energy       7858.4 (Joules/Mol)
                                    1.87820 (Kcal/Mol)
 Vibrational temperatures:    945.11   945.18
          (Kelvin)

 Zero-point correction=                           0.002993 (Hartree/Particle)
 Thermal correction to Energy=                    0.005616
 Thermal correction to Enthalpy=                  0.006560
 Thermal correction to Gibbs Free Energy=        -0.017963
 Sum of electronic and zero-point Energies=           -100.776380
 Sum of electronic and thermal Energies=              -100.773757
 Sum of electronic and thermal Enthalpies=            -100.772813
 Sum of electronic and thermal Free Energies=         -100.797336

                     E (Thermal)             CV                S
                      KCal/Mol        Cal/Mol-Kelvin    Cal/Mol-Kelvin
 Total                    3.524              6.796             51.613
 Electronic               0.000              0.000              1.377
 Translational            0.889              2.981             35.068
 Rotational               0.592              1.987             14.444
 Vibrational              2.043              1.828              0.723

 Normal termination of Gaussian 16 at Sat Aug 23 00:46:42 2025.
