 Gaussian 16, Revision C.01,
 Gaussian 16:  ES64L-G16RevC.01  3-Jul-2019

 -----------------------------------------
 # sp b3lyp/6-311g** Force nosymm scf=(qc)
 -----------------------------------------

 -------------------
 Title Card Required
 -------------------
 Symbolic Z-matrix:
 Charge =  0 Multiplicity = 2

                          Input orientation:
 ---------------------------------------------------------------------
 Center     Atomic      Atomic             Coordinates (Angstroms)
 Number     Number       Type             X           Y           Z
 ---------------------------------------------------------------------
      1          1           0        0.000000    0.000000    0.000000
      2          1           0       -3.700000    0.000000    0.000000
      3          9           0        1.700000    0.000000    0.000000
 ---------------------------------------------------------------------

 SCF Done:  E(UB3LYP) =  -100.814478991     a.u. after   10 cycles

 Alpha  occ. eigenvalues --  -24.64246  -1.08862  -0.40970  -0.36011  -0.36011
 Alpha  occ. eigenvalues --   -0.33858
 Alpha virt. eigenvalues --   -0.18798   0.19837   0.27188   0.94858   0.94858
 Alpha virt. eigenvalues --    0.96439   1.07311   1.23634   1.23648   1.23648
 Alpha virt. eigenvalues --    1.27608   1.27608   1.70160   2.12444   2.16707

  Beta  occ. eigenvalues --  -24.64256  -1.08890  -0.40983  -0.36021  -0.36021
  Beta virt. eigenvalues --   -0.18844  -0.06623   0.22565   0.38119   0.94863
  Beta virt. eigenvalues --    0.94863   0.96464   1.07313   1.27690   1.27690
  Beta virt. eigenvalues --    1.45829   1.46241   1.46241   1.70224   2.15523

 Mulliken charges and spin densities:
               1          2
     1  H    0.326532   0.004740
     2  H    0.001532   0.998405
     3  F   -0.328064  -0.003145
 Sum of Mulliken charges =  -0.00000   1.00000

 Dipole moment (field-independent basis, Debye):
    X=             -2.7748    Y=              0.0000    Z=              0.0000  Tot=              2.7748
 Quadrupole moment (field-independent basis, Debye-Ang):
   XX=            -10.6650   YY=             -7.4183   ZZ=             -7.4183
   XY=              0.0000   XZ=              0.0000   YZ=              0.0000

  Exact polarizability:      19.785       0.000       2.103      -0.000      -0.000       2.103
 Approx polarizability:      46.544       0.000       2.015       0.000      -0.000       2.015

 ******    2 imaginary frequencies (negative Signs) ******

                      1                      2                      3
                      A                      A                      A
 Frequencies --  -1183.2596               -73.8353               869.0932
 Red. masses --      1.0577                 1.0538                 1.0294
 Frc consts  --      0.8725                 0.0034                 0.4581
 IR Inten    --     33.9972                 0.2072               102.6218

                      4
                      A
 Frequencies --    869.0932
 Red. masses --      1.0294
 Frc consts  --      0.4581
 IR Inten    --    102.6218

 - Thermochemistry -
 -------------------
 Temperature   298.150 Kelvin.  Pressure   1.00000 Atm.
 Atom     1 has atomic number  1 and mass   1.00783

 Molecular mass:    21.01405 amu.
 Principal axes and moments of inertia in atomic units:
                           1         2         3
     Eigenvalues --     0.00000 106.64711 106.64711
           X            1.00000  -0.00000   0.00000
           Y            0.00000   1.00000   0.00000
           Z            0.00000   0.00000   1.00000
 This molecule is a prolate symmetric top.
 Rotational symmetry number  1.
 Rotational temperature (Kelvin)      0.81215
 Rotational constant (GHZ):          16.922552
    2 imaginary frequencies ignored.
 Zero-point vibrational energy      10396.7 (Joules/Mol)
                                    2.48486 (Kcal/Mol)
 Vibrational temperatures:   1250.43  1250.43
          (Kelvin)

 Zero-point correction=                           0.003960 (Hartree/Particle)
 Thermal correction to Energy=                    0.006442
 Thermal correction to Enthalpy=                  0.007386
 Thermal correction to Gibbs Free Energy=        -0.016601
 Sum of electronic and zero-point Energies=           -100.810519
 Sum of electronic and thermal Energies=              -100.808037
 Sum of electronic and thermal Enthalpies=            -100.807093
 Sum of electronic and thermal Free Energies=         -100.831080

                     E (Thermal)             CV                S
                      KCal/Mol        Cal/Mol-Kelvin    Cal/Mol-Kelvin
 Total                    4.042              6.055             50.484
 Electronic               0.000              0.000              1.377
 Translational            0.889              2.981             35.068
 Rotational               0.592              1.987             13.723
 Vibrational              2.561              1.087              0.316

 Normal termination of Gaussian 16 at Fri Aug 22 16:38:55 2025.
