 Gaussian 16, Revision C.01,
 Gaussian 16:  ES64L-G16RevC.01  3-Jul-2019

 -----------------------------------------
 # sp b3lyp/6-311g** Force nosymm scf=(qc)
 -----------------------------------------

 -------------------
 Title Card Required
 -------------------
 Symbolic Z-matrix:
 Charge =  0 Multiplicity = 2

                          Input orientation:
 ---------------------------------------------------------------------
 Center     Atomic      Atomic             Coordinates (Angstroms)
 Number     Number       Type             X           Y           Z
 ---------------------------------------------------------------------
      1          1           0        0.000000    0.000000    0.000000
      2          1           0       -1.650000    0.000000    0.000000
      3          9           0        3.600000    0.000000    0.000000
 ---------------------------------------------------------------------

 SCF Done:  E(UB3LYP) =  -100.800161754     a.u. after   96 cycles

 Alpha  occ. eigenvalues --  -24.76297  -1.22184  -0.55386  -0.46569  -0.46541
 Alpha  occ. eigenvalues --   -0.33144
 Alpha virt. eigenvalues --   -0.10404   0.25601   0.30724   0.85995   0.90872
 Alpha virt. eigenvalues --    0.91772   1.01127   1.06971   1.23217   1.23218
 Alpha virt. eigenvalues --    1.38811   1.38814   1.71128   2.18152   2.42869

  Beta  occ. eigenvalues --  -24.73142  -1.13111  -0.43412  -0.43378  -0.33133
  Beta virt. eigenvalues --   -0.26033  -0.10439   0.25579   0.30801   0.92374
  Beta virt. eigenvalues --    0.93224   0.95463   1.05226   1.06966   1.23210
  Beta virt. eigenvalues --    1.23213   1.38801   1.38803   1.71164   2.18367

 Mulliken charges and spin densities:
               1          2
     1  H    0.000635  -0.540470
     2  H   -0.002547   0.540436
     3  F    0.001912   1.000035
 Sum of Mulliken charges =   0.00000   1.00000

 Dipole moment (field-independent basis, Debye):
    X=              0.0401    Y=              0.0000    Z=              0.0000  Tot=              0.0401
 Quadrupole moment (field-independent basis, Debye-Ang):
   XX=             -6.4960   YY=             -6.9072   ZZ=             -7.7714
   XY=              0.0002   XZ=              0.0000   YZ=              0.0106

  Exact polarizability:      23.853       0.000       2.485      -0.000       0.006       2.022
 Approx polarizability:      39.718       0.000       2.574       0.000       0.007       1.992

 ******    2 imaginary frequencies (negative Signs) ******

                      1                      2                      3
                      A                      A                      A
 Frequencies --  -1987.8723               -50.5766               980.1243
 Red. masses --      1.0078                 1.1085                 1.0112
 Frc consts  --      2.3465                 0.0017                 0.5723
 IR Inten    --      0.0306                 0.1210                 0.0022

                      4
                      A
 Frequencies --    981.2629
 Red. masses --      1.0112
 Frc consts  --      0.5737
 IR Inten    --      0.0009

 - Thermochemistry -
 -------------------
 Temperature   298.150 Kelvin.  Pressure   1.00000 Atm.
 Atom     1 has atomic number  1 and mass   1.00783

 Molecular mass:    21.01405 amu.
 Principal axes and moments of inertia in atomic units:
                           1         2         3
     Eigenvalues --     0.00000 132.32182 132.32182
           X            1.00000  -0.00000   0.00000
           Y            0.00000   1.00000   0.00000
           Z            0.00000   0.00000   1.00000
 This molecule is a prolate symmetric top.
 Rotational symmetry number  1.
 Rotational temperature (Kelvin)      0.65457
 Rotational constant (GHZ):          13.639030
    2 imaginary frequencies ignored.
 Zero-point vibrational energy      11731.7 (Joules/Mol)
                                    2.80394 (Kcal/Mol)
 Vibrational temperatures:   1410.18  1411.82
          (Kelvin)

 Zero-point correction=                           0.004468 (Hartree/Particle)
 Thermal correction to Energy=                    0.006908
 Thermal correction to Enthalpy=                  0.007852
 Thermal correction to Gibbs Free Energy=        -0.016284
 Sum of electronic and zero-point Energies=           -100.795693
 Sum of electronic and thermal Energies=              -100.793254
 Sum of electronic and thermal Enthalpies=            -100.792309
 Sum of electronic and thermal Free Energies=         -100.816446

                     E (Thermal)             CV                S
                      KCal/Mol        Cal/Mol-Kelvin    Cal/Mol-Kelvin
 Total                    4.335              5.766             50.799
 Electronic               0.000              0.000              1.377
 Translational            0.889              2.981             35.068
 Rotational               0.592              1.987             14.152
 Vibrational              2.854              0.798              0.202

 Normal termination of Gaussian 16 at Fri Aug 22 23:03:26 2025.
