 Gaussian 16, Revision C.01,
 Gaussian 16:  ES64L-G16RevC.01  3-Jul-2019

 -----------------------------------------
 # sp b3lyp/6-311g** Force nosymm scf=(qc)
 -----------------------------------------

 -------------------
 Title Card Required
 -------------------
 Symbolic Z-matrix:
 Charge =  0 Multiplicity = 2

                          Input orientation:
 ---------------------------------------------------------------------
 Center     Atomic      Atomic             Coordinates (Angstroms)
 Number     Number       Type             X           Y           Z
 ---------------------------------------------------------------------
      1          1           0        0.000000    0.000000    0.000000
      2          1           0       -0.750000    0.000000    0.000000
      3          9           0        3.700000    0.000000    0.000000
 ---------------------------------------------------------------------

 SCF Done:  E(UB3LYP) =  -100.933797048     a.u. after   88 cycles

 Alpha  occ. eigenvalues --  -24.76262  -1.22139  -0.55341  -0.46526  -0.46496
 Alpha  occ. eigenvalues --   -0.43170
 Alpha virt. eigenvalues --    0.05747   0.19795   0.46518   0.86049   0.90925
 Alpha virt. eigenvalues --    0.92248   1.01419   1.08519   1.08521   1.55071
 Alpha virt. eigenvalues --    1.82372   1.82374   1.96553   2.37958   3.28201

  Beta  occ. eigenvalues --  -24.73105  -1.13062  -0.43430  -0.43331  -0.43100
  Beta virt. eigenvalues --   -0.25985   0.05757   0.19802   0.46558   0.92425
  Beta virt. eigenvalues --    0.93746   0.95513   1.05520   1.08519   1.08521
  Beta virt. eigenvalues --    1.55075   1.82371   1.82374   1.96566   2.37959

 Mulliken charges and spin densities:
               1          2
     1  H   -0.000604  -0.000289
     2  H   -0.001965   0.000003
     3  F    0.002569   1.000285
 Sum of Mulliken charges =   0.00000   1.00000

 Dipole moment (field-independent basis, Debye):
    X=              0.0342    Y=              0.0000    Z=             -0.0000  Tot=              0.0342
 Quadrupole moment (field-independent basis, Debye-Ang):
   XX=             -6.2471   YY=             -6.0878   ZZ=             -6.9518
   XY=              0.0000   XZ=              0.0000   YZ=              0.0123

  Exact polarizability:       8.171       0.000       2.422      -0.000       0.007       1.957
 Approx polarizability:       9.440       0.000       2.615       0.000       0.008       2.033

 ******    1 imaginary frequencies (negative Signs) ******

                      1                      2                      3
                      A                      A                      A
 Frequencies --    -56.2853               405.8797               408.8402
 Red. masses --      1.1085                 1.0087                 1.0087
 Frc consts  --      0.0021                 0.0979                 0.0993
 IR Inten    --      0.0897                 0.0001                 0.0001

                      4
                      A
 Frequencies --   4337.0894
 Red. masses --      1.0078
 Frc consts  --     11.1695
 IR Inten    --      0.0382

 - Thermochemistry -
 -------------------
 Temperature   298.150 Kelvin.  Pressure   1.00000 Atm.
 Atom     1 has atomic number  1 and mass   1.00783

 Molecular mass:    21.01405 amu.
 Principal axes and moments of inertia in atomic units:
                           1         2         3
     Eigenvalues --     0.00000 109.07481 109.07481
           X            1.00000  -0.00000   0.00000
           Y            0.00000   1.00000   0.00000
           Z            0.00000   0.00000   1.00000
 This molecule is a prolate symmetric top.
 Rotational symmetry number  1.
 Rotational temperature (Kelvin)      0.79408
 Rotational constant (GHZ):          16.545903
    1 imaginary frequencies ignored.
 Zero-point vibrational energy      30814.7 (Joules/Mol)
                                    7.36488 (Kcal/Mol)
 Warning -- explicit consideration of   2 degrees of freedom as
           vibrations may cause significant error
 Vibrational temperatures:    583.97   588.23  6240.10
          (Kelvin)

 Zero-point correction=                           0.011737 (Hartree/Particle)
 Thermal correction to Energy=                    0.014702
 Thermal correction to Enthalpy=                  0.015646
 Thermal correction to Gibbs Free Energy=        -0.009101
 Sum of electronic and zero-point Energies=           -100.922060
 Sum of electronic and thermal Energies=              -100.919095
 Sum of electronic and thermal Enthalpies=            -100.918151
 Sum of electronic and thermal Free Energies=         -100.942899

                     E (Thermal)             CV                S
                      KCal/Mol        Cal/Mol-Kelvin    Cal/Mol-Kelvin
 Total                    9.225              7.876             52.085
 Electronic               0.000              0.000              1.377
 Translational            0.889              2.981             35.068
 Rotational               0.592              1.987             13.768
 Vibrational              7.744              2.908              1.872
 Vibration     1          0.771              1.457              0.941
 Vibration     2          0.773              1.451              0.931

 Normal termination of Gaussian 16 at Fri Aug 22 23:41:49 2025.
