 Gaussian 16, Revision C.01,
 Gaussian 16:  ES64L-G16RevC.01  3-Jul-2019

 -----------------------------------------
 # sp b3lyp/6-311g** Force nosymm scf=(qc)
 -----------------------------------------

 -------------------
 Title Card Required
 -------------------
 Symbolic Z-matrix:
 Charge =  0 Multiplicity = 2

                          Input orientation:
 ---------------------------------------------------------------------
 Center     Atomic      Atomic             Coordinates (Angstroms)
 Number     Number       Type             X           Y           Z
 ---------------------------------------------------------------------
      1          1           0        0.000000    0.000000    0.000000
      2          1           0       -0.550000    0.000000    0.000000
      3          9           0        3.850000    0.000000    0.000000
 ---------------------------------------------------------------------

 SCF Done:  E(UB3LYP) =  -100.893979868     a.u. after   85 cycles

 Alpha  occ. eigenvalues --  -24.76199  -1.22082  -0.55285  -0.47916  -0.46455
 Alpha  occ. eigenvalues --   -0.46441
 Alpha virt. eigenvalues --    0.09197   0.18587   0.53748   0.86096   0.90973
 Alpha virt. eigenvalues --    0.92226   1.01382   1.11047   1.11049   1.61049
 Alpha virt. eigenvalues --    1.81660   1.96171   1.96173   2.36443   3.64938

  Beta  occ. eigenvalues --  -24.73043  -1.13006  -0.47913  -0.43293  -0.43276
  Beta virt. eigenvalues --   -0.25931   0.09208   0.18592   0.53793   0.92473
  Beta virt. eigenvalues --    0.93716   0.95562   1.05485   1.11047   1.11049
  Beta virt. eigenvalues --    1.61053   1.81674   1.96170   1.96173   2.36443

 Mulliken charges and spin densities:
               1          2
     1  H   -0.000853  -0.000301
     2  H   -0.001302   0.000067
     3  F    0.002156   1.000234
 Sum of Mulliken charges =   0.00000   1.00000

 Dipole moment (field-independent basis, Debye):
    X=              0.0275    Y=             -0.0000    Z=              0.0000  Tot=              0.0275
 Quadrupole moment (field-independent basis, Debye-Ang):
   XX=             -6.2002   YY=             -5.8058   ZZ=             -6.6544
   XY=              0.0000   XZ=             -0.0000   YZ=             -0.0825

  Exact polarizability:       5.777       0.000       2.295      -0.000      -0.044       1.838
 Approx polarizability:       6.218       0.000       2.493      -0.000      -0.056       1.921

 ******    3 imaginary frequencies (negative Signs) ******

                      1                      2                      3
                      A                      A                      A
 Frequencies --  -3700.3005             -3699.8711               -52.1307
 Red. masses --      1.0083                 1.0083                 1.1085
 Frc consts  --      8.1340                 8.1321                 0.0018
 IR Inten    --      0.0007                 0.0007                 0.0710

                      4
                      A
 Frequencies --   8343.2392
 Red. masses --      1.0078
 Frc consts  --     41.3337
 IR Inten    --      0.0297

 - Thermochemistry -
 -------------------
 Temperature   298.150 Kelvin.  Pressure   1.00000 Atm.
 Atom     1 has atomic number  1 and mass   1.00783

 Molecular mass:    21.01405 amu.
 Principal axes and moments of inertia in atomic units:
                           1         2         3
     Eigenvalues --     0.00000 111.27505 111.27505
           X            1.00000  -0.00000   0.00000
           Y            0.00000   1.00000   0.00000
           Z            0.00000   0.00000   1.00000
 This molecule is a prolate symmetric top.
 Rotational symmetry number  1.
 Rotational temperature (Kelvin)      0.77838
 Rotational constant (GHZ):          16.218741
    3 imaginary frequencies ignored.
 Zero-point vibrational energy      49903.7 (Joules/Mol)
                                   11.92726 (Kcal/Mol)
 Vibrational temperatures:  12004.06
          (Kelvin)

 Zero-point correction=                           0.019007 (Hartree/Particle)
 Thermal correction to Energy=                    0.021368
 Thermal correction to Enthalpy=                  0.022312
 Thermal correction to Gibbs Free Energy=        -0.001565
 Sum of electronic and zero-point Energies=           -100.874973
 Sum of electronic and thermal Energies=              -100.872612
 Sum of electronic and thermal Enthalpies=            -100.871668
 Sum of electronic and thermal Free Energies=         -100.895545

                     E (Thermal)             CV                S
                      KCal/Mol        Cal/Mol-Kelvin    Cal/Mol-Kelvin
 Total                   13.408              4.968             50.253
 Electronic               0.000              0.000              1.377
 Translational            0.889              2.981             35.068
 Rotational               0.592              1.987             13.807
 Vibrational             11.927              0.000              0.000

 Normal termination of Gaussian 16 at Sat Aug 23 00:54:00 2025.
