 Gaussian 16, Revision C.01,
 Gaussian 16:  ES64L-G16RevC.01  3-Jul-2019

 -----------------------------------------
 # sp b3lyp/6-311g** Force nosymm scf=(qc)
 -----------------------------------------

 -------------------
 Title Card Required
 -------------------
 Symbolic Z-matrix:
 Charge =  0 Multiplicity = 2

                          Input orientation:
 ---------------------------------------------------------------------
 Center     Atomic      Atomic             Coordinates (Angstroms)
 Number     Number       Type             X           Y           Z
 ---------------------------------------------------------------------
      1          1           0        0.000000    0.000000    0.000000
      2          1           0       -0.700000    0.000000    0.000000
      3          9           0        1.900000    0.000000    0.000000
 ---------------------------------------------------------------------

 SCF Done:  E(UB3LYP) =  -100.933299110     a.u. after    5 cycles

 Alpha  occ. eigenvalues --  -24.74550  -1.20723  -0.55056  -0.45335  -0.45171
 Alpha  occ. eigenvalues --   -0.45171
 Alpha virt. eigenvalues --    0.08481   0.20203   0.45668   0.90332   0.90332
 Alpha virt. eigenvalues --    0.93413   1.07918   1.07918   1.16695   1.66258
 Alpha virt. eigenvalues --    1.84634   1.84634   1.88821   2.41821   3.55732

  Beta  occ. eigenvalues --  -24.71542  -1.12177  -0.46167  -0.42178  -0.42178
  Beta virt. eigenvalues --   -0.25360   0.09279   0.20826   0.46402   0.91661
  Beta virt. eigenvalues --    0.91661   1.01065   1.08727   1.08727   1.20191
  Beta virt. eigenvalues --    1.67775   1.85030   1.85030   1.89426   2.42715

 Mulliken charges and spin densities:
               1          2
     1  H    0.016725  -0.027693
     2  H    0.027158   0.087399
     3  F   -0.043883   0.940295
 Sum of Mulliken charges =   0.00000   1.00000

 Dipole moment (field-independent basis, Debye):
    X=             -0.4807    Y=              0.0000    Z=             -0.0000  Tot=              0.4807
 Quadrupole moment (field-independent basis, Debye-Ang):
   XX=             -6.1074   YY=             -6.8325   ZZ=             -6.8325
   XY=             -0.0000   XZ=             -0.0000   YZ=              0.0000

  Exact polarizability:      16.839      -0.000       2.100       0.000       0.000       2.100
 Approx polarizability:      18.787      -0.000       2.162      -0.000      -0.000       2.162

 ******    3 imaginary frequencies (negative Signs) ******

                      1                      2                      3
                      A                      A                      A
 Frequencies --  -1316.6999             -1316.6999               -91.0489
 Red. masses --      1.0102                 1.0102                 1.1085
 Frc consts  --      1.0319                 1.0319                 0.0054
 IR Inten    --      0.2081                 0.2081                32.7976

                      4
                      A
 Frequencies --   5006.4219
 Red. masses --      1.0078
 Frc consts  --     14.8832
 IR Inten    --    288.7050

 - Thermochemistry -
 -------------------
 Temperature   298.150 Kelvin.  Pressure   1.00000 Atm.
 Atom     1 has atomic number  1 and mass   1.00783

 Molecular mass:    21.01405 amu.
 Principal axes and moments of inertia in atomic units:
                           1         2         3
     Eigenvalues --     0.00000  33.82643  33.82643
           X            1.00000  -0.00000   0.00000
           Y            0.00000   1.00000   0.00000
           Z            0.00000   0.00000   1.00000
 This molecule is a prolate symmetric top.
 Rotational symmetry number  1.
 Rotational temperature (Kelvin)      2.56054
 Rotational constant (GHZ):          53.352993
    3 imaginary frequencies ignored.
 Zero-point vibrational energy      29945.1 (Joules/Mol)
                                    7.15704 (Kcal/Mol)
 Vibrational temperatures:   7203.12
          (Kelvin)

 Zero-point correction=                           0.011405 (Hartree/Particle)
 Thermal correction to Energy=                    0.013766
 Thermal correction to Enthalpy=                  0.014710
 Thermal correction to Gibbs Free Energy=        -0.008042
 Sum of electronic and zero-point Energies=           -100.921894
 Sum of electronic and thermal Energies=              -100.919533
 Sum of electronic and thermal Enthalpies=            -100.918589
 Sum of electronic and thermal Free Energies=         -100.941341

                     E (Thermal)             CV                S
                      KCal/Mol        Cal/Mol-Kelvin    Cal/Mol-Kelvin
 Total                    8.638              4.968             47.887
 Electronic               0.000              0.000              1.377
 Translational            0.889              2.981             35.068
 Rotational               0.592              1.987             11.441
 Vibrational              7.157              0.000              0.000

 Normal termination of Gaussian 16 at Fri Aug 22 16:48:51 2025.
