 Gaussian 16, Revision C.01,
 Gaussian 16:  ES64L-G16RevC.01  3-Jul-2019

 -----------------------------------------
 # sp b3lyp/6-311g** Force nosymm scf=(qc)
 -----------------------------------------

 -------------------
 Title Card Required
 -------------------
 Symbolic Z-matrix:
 Charge =  0 Multiplicity = 2

                          Input orientation:
 ---------------------------------------------------------------------
 Center     Atomic      Atomic             Coordinates (Angstroms)
 Number     Number       Type             X           Y           Z
 ---------------------------------------------------------------------
      1          1           0        0.000000    0.000000    0.000000
      2          1           0       -2.350000    0.000000    0.000000
      3          9           0        3.700000    0.000000    0.000000
 ---------------------------------------------------------------------

 SCF Done:  E(UB3LYP) =  -100.764685133     a.u. after   27 cycles

 Alpha  occ. eigenvalues --  -24.75729  -1.21668  -0.54853  -0.46058  -0.46058
 Alpha  occ. eigenvalues --   -0.32689
 Alpha virt. eigenvalues --   -0.09843   0.25879   0.34058   0.87044   0.91260
 Alpha virt. eigenvalues --    0.91260   1.01356   1.25042   1.25042   1.25903
 Alpha virt. eigenvalues --    1.40563   1.40563   1.43675   2.15184   2.35836

  Beta  occ. eigenvalues --  -24.72596  -1.12658  -0.42916  -0.42916  -0.32857
  Beta virt. eigenvalues --   -0.25676  -0.09553   0.25704   0.34493   0.92755
  Beta virt. eigenvalues --    0.92755   0.96327   1.05448   1.24847   1.24847
  Beta virt. eigenvalues --    1.25695   1.40990   1.40990   1.44074   2.15508

 Mulliken charges and spin densities:
               1          2
     1  H    0.003442  -0.946279
     2  H    0.002146   0.952649
     3  F   -0.005588   0.993630
 Sum of Mulliken charges =  -0.00000   1.00000

 Dipole moment (field-independent basis, Debye):
    X=             -0.1301    Y=              0.0000    Z=              0.0000  Tot=              0.1301
 Quadrupole moment (field-independent basis, Debye-Ang):
   XX=             -6.7821   YY=             -7.6815   ZZ=             -7.6815
   XY=              0.0000   XZ=              0.0000   YZ=              0.0000

  Exact polarizability:      29.744      -0.000       2.015       0.000       0.000       2.015
 Approx polarizability:      22.562       0.000       1.930       0.000       0.000       1.930

 ******    2 imaginary frequencies (negative Signs) ******

                      1                      2                      3
                      A                      A                      A
 Frequencies --   -822.9806              -108.0557               310.4658
 Red. masses --      1.0079                 1.1085                 1.0134
 Frc consts  --      0.4022                 0.0076                 0.0576
 IR Inten    --      2.6005                 2.8418                 0.0064

                      4
                      A
 Frequencies --    310.4658
 Red. masses --      1.0134
 Frc consts  --      0.0576
 IR Inten    --      0.0064

 - Thermochemistry -
 -------------------
 Temperature   298.150 Kelvin.  Pressure   1.00000 Atm.
 Atom     1 has atomic number  1 and mass   1.00783

 Molecular mass:    21.01405 amu.
 Principal axes and moments of inertia in atomic units:
                           1         2         3
     Eigenvalues --     0.00000 164.59469 164.59469
           X            1.00000  -0.00000   0.00000
           Y            0.00000   1.00000   0.00000
           Z            0.00000   0.00000   1.00000
 This molecule is a prolate symmetric top.
 Rotational symmetry number  1.
 Rotational temperature (Kelvin)      0.52623
 Rotational constant (GHZ):          10.964759
    2 imaginary frequencies ignored.
 Zero-point vibrational energy       3714.0 (Joules/Mol)
                                    0.88767 (Kcal/Mol)
 Warning -- explicit consideration of   2 degrees of freedom as
           vibrations may cause significant error
 Vibrational temperatures:    446.69   446.69
          (Kelvin)

 Zero-point correction=                           0.001415 (Hartree/Particle)
 Thermal correction to Energy=                    0.004590
 Thermal correction to Enthalpy=                  0.005534
 Thermal correction to Gibbs Free Energy=        -0.020005
 Sum of electronic and zero-point Energies=           -100.763271
 Sum of electronic and thermal Energies=              -100.760096
 Sum of electronic and thermal Enthalpies=            -100.759151
 Sum of electronic and thermal Free Energies=         -100.784690

                     E (Thermal)             CV                S
                      KCal/Mol        Cal/Mol-Kelvin    Cal/Mol-Kelvin
 Total                    2.880              8.276             53.750
 Electronic               0.000              0.000              1.377
 Translational            0.889              2.981             35.068
 Rotational               0.592              1.987             14.585
 Vibrational              1.399              3.308              2.720
 Vibration     1          0.699              1.654              1.360
 Vibration     2          0.699              1.654              1.360

 Normal termination of Gaussian 16 at Sat Aug 23 00:03:06 2025.
