 Gaussian 16, Revision C.01,
 Gaussian 16:  ES64L-G16RevC.01  3-Jul-2019

 -----------------------------------------
 # sp b3lyp/6-311g** Force nosymm scf=(qc)
 -----------------------------------------

 -------------------
 Title Card Required
 -------------------
 Symbolic Z-matrix:
 Charge =  0 Multiplicity = 2

                          Input orientation:
 ---------------------------------------------------------------------
 Center     Atomic      Atomic             Coordinates (Angstroms)
 Number     Number       Type             X           Y           Z
 ---------------------------------------------------------------------
      1          1           0        0.000000    0.000000    0.000000
      2          1           0       -3.800000    0.000000    0.000000
      3          9           0        3.950000    0.000000    0.000000
 ---------------------------------------------------------------------

 SCF Done:  E(UB3LYP) =  -100.758465692     a.u. after   33 cycles

 Alpha  occ. eigenvalues --  -24.75852  -1.21782  -0.54977  -0.46160  -0.46160
 Alpha  occ. eigenvalues --   -0.32238
 Alpha virt. eigenvalues --   -0.06221   0.24214   0.37859   0.86621   0.91188
 Alpha virt. eigenvalues --    0.91188   1.01119   1.25258   1.25258   1.25307
 Alpha virt. eigenvalues --    1.46108   1.46282   1.46282   2.14743   2.41973

  Beta  occ. eigenvalues --  -24.72709  -1.12742  -0.43008  -0.43008  -0.32453
  Beta virt. eigenvalues --   -0.25717  -0.06011   0.24048   0.38194   0.92686
  Beta virt. eigenvalues --    0.92686   0.95984   1.05239   1.25026   1.25026
  Beta virt. eigenvalues --    1.25061   1.46455   1.46604   1.46604   2.14722

 Mulliken charges and spin densities:
               1          2
     1  H    0.002860  -0.995762
     2  H    0.000032   0.998972
     3  F   -0.002892   0.996790
 Sum of Mulliken charges =  -0.00000   1.00000

 Dipole moment (field-independent basis, Debye):
    X=             -0.0598    Y=              0.0000    Z=              0.0000  Tot=              0.0598
 Quadrupole moment (field-independent basis, Debye-Ang):
   XX=             -6.9487   YY=             -7.6203   ZZ=             -7.6203
   XY=              0.0000   XZ=              0.0000   YZ=              0.0000

  Exact polarizability:      11.285      -0.000       2.034      -0.000       0.000       2.034
 Approx polarizability:       8.375       0.000       1.937       0.000      -0.000       1.937

 ******    2 imaginary frequencies (negative Signs) ******

                      1                      2                      3
                      A                      A                      A
 Frequencies --   -152.2184               -64.4733                49.2443
 Red. masses --      1.0183                 1.0961                 1.0175
 Frc consts  --      0.0139                 0.0027                 0.0015
 IR Inten    --      1.2167                 0.3101                 0.0080

                      4
                      A
 Frequencies --     49.2443
 Red. masses --      1.0175
 Frc consts  --      0.0015
 IR Inten    --      0.0080

 - Thermochemistry -
 -------------------
 Temperature   298.150 Kelvin.  Pressure   1.00000 Atm.
 Atom     1 has atomic number  1 and mass   1.00783

 Molecular mass:    21.01405 amu.
 Principal axes and moments of inertia in atomic units:
                           1         2         3
     Eigenvalues --     0.00000 248.69082 248.69082
           X            1.00000  -0.00000   0.00000
           Y            0.00000   1.00000   0.00000
           Z            0.00000   0.00000   1.00000
 This molecule is a prolate symmetric top.
 Rotational symmetry number  1.
 Rotational temperature (Kelvin)      0.34828
 Rotational constant (GHZ):           7.256968
    2 imaginary frequencies ignored.
 Zero-point vibrational energy        589.1 (Joules/Mol)
                                    0.14080 (Kcal/Mol)
 Warning -- explicit consideration of   2 degrees of freedom as
           vibrations may cause significant error
 Vibrational temperatures:     70.85    70.85
          (Kelvin)

 Zero-point correction=                           0.000224 (Hartree/Particle)
 Thermal correction to Energy=                    0.004258
 Thermal correction to Enthalpy=                  0.005202
 Thermal correction to Gibbs Free Energy=        -0.024041
 Sum of electronic and zero-point Energies=           -100.758241
 Sum of electronic and thermal Energies=              -100.754208
 Sum of electronic and thermal Enthalpies=            -100.753264
 Sum of electronic and thermal Free Energies=         -100.782506

                     E (Thermal)             CV                S
                      KCal/Mol        Cal/Mol-Kelvin    Cal/Mol-Kelvin
 Total                    2.672              8.924             61.546
 Electronic               0.000              0.000              1.377
 Translational            0.889              2.981             35.068
 Rotational               0.592              1.987             15.405
 Vibrational              1.191              3.956              9.695
 Vibration     1          0.595              1.978              4.848
 Vibration     2          0.595              1.978              4.848

 Normal termination of Gaussian 16 at Sat Aug 23 01:42:21 2025.
