 Gaussian 16, Revision C.01,
 Gaussian 16:  ES64L-G16RevC.01  3-Jul-2019

 -----------------------------------------
 # sp b3lyp/6-311g** Force nosymm scf=(qc)
 -----------------------------------------

 -------------------
 Title Card Required
 -------------------
 Symbolic Z-matrix:
 Charge =  0 Multiplicity = 2

                          Input orientation:
 ---------------------------------------------------------------------
 Center     Atomic      Atomic             Coordinates (Angstroms)
 Number     Number       Type             X           Y           Z
 ---------------------------------------------------------------------
      1          1           0        0.000000    0.000000    0.000000
      2          1           0       -3.450000    0.000000    0.000000
      3          9           0        0.700000    0.000000    0.000000
 ---------------------------------------------------------------------

 SCF Done:  E(UB3LYP) =  -100.874783597     a.u. after    6 cycles

 Alpha  occ. eigenvalues --  -24.63196  -1.28228  -0.58587  -0.41761  -0.41761
 Alpha  occ. eigenvalues --   -0.33459
 Alpha virt. eigenvalues --    0.06472   0.24968   0.52407   0.93483   0.93483
 Alpha virt. eigenvalues --    0.95788   1.23734   1.24053   1.24053   1.31722
 Alpha virt. eigenvalues --    1.44063   1.44063   1.97932   2.14645   2.86578

  Beta  occ. eigenvalues --  -24.63195  -1.28226  -0.58586  -0.41761  -0.41761
  Beta virt. eigenvalues --   -0.05379   0.07004   0.39461   0.52414   0.93483
  Beta virt. eigenvalues --    0.93483   0.95779   1.31040   1.44064   1.44064
  Beta virt. eigenvalues --    1.50841   1.50841   1.51052   1.97936   2.44739

 Mulliken charges and spin densities:
               1          2
     1  H    0.261967   0.000633
     2  H    0.000837   0.998960
     3  F   -0.262804   0.000407
 Sum of Mulliken charges =   0.00000   1.00000

 Dipole moment (field-independent basis, Debye):
    X=             -1.5922    Y=             -0.0000    Z=              0.0000  Tot=              1.5922
 Quadrupole moment (field-independent basis, Debye-Ang):
   XX=             -7.2784   YY=             -6.6630   ZZ=             -6.6630
   XY=             -0.0000   XZ=              0.0000   YZ=              0.0000

  Exact polarizability:       4.033      -0.000       2.448      -0.000      -0.000       2.448
 Approx polarizability:       4.379       0.000       2.429      -0.000      -0.000       2.429

 ******    3 imaginary frequencies (negative Signs) ******

                      1                      2                      3
                      A                      A                      A
 Frequencies --  -3560.1496             -3560.1496               -40.5831
 Red. masses --      1.0418                 1.0418                 1.0532
 Frc consts  --      7.7797                 7.7797                 0.0010
 IR Inten    --    214.0068               214.0068                 0.0324

                      4
                      A
 Frequencies --   9073.2497
 Red. masses --      1.0583
 Frc consts  --     51.3322
 IR Inten    --    106.3321

 - Thermochemistry -
 -------------------
 Temperature   298.150 Kelvin.  Pressure   1.00000 Atm.
 Atom     1 has atomic number  1 and mass   1.00783

 Molecular mass:    21.01405 amu.
 Principal axes and moments of inertia in atomic units:
                           1         2         3
     Eigenvalues --     0.00000  59.68729  59.68729
           X            1.00000  -0.00000   0.00000
           Y            0.00000   1.00000   0.00000
           Z            0.00000   0.00000   1.00000
 This molecule is a prolate symmetric top.
 Rotational symmetry number  1.
 Rotational temperature (Kelvin)      1.45113
 Rotational constant (GHZ):          30.236607
    3 imaginary frequencies ignored.
 Zero-point vibrational energy      54270.1 (Joules/Mol)
                                   12.97086 (Kcal/Mol)
 Vibrational temperatures:  13054.38
          (Kelvin)

 Zero-point correction=                           0.020670 (Hartree/Particle)
 Thermal correction to Energy=                    0.023031
 Thermal correction to Enthalpy=                  0.023975
 Thermal correction to Gibbs Free Energy=         0.000686
 Sum of electronic and zero-point Energies=           -100.854113
 Sum of electronic and thermal Energies=              -100.851753
 Sum of electronic and thermal Enthalpies=            -100.850809
 Sum of electronic and thermal Free Energies=         -100.874097

                     E (Thermal)             CV                S
                      KCal/Mol        Cal/Mol-Kelvin    Cal/Mol-Kelvin
 Total                   14.452              4.968             49.015
 Electronic               0.000              0.000              1.377
 Translational            0.889              2.981             35.068
 Rotational               0.592              1.987             12.570
 Vibrational             12.971              0.000              0.000

 Normal termination of Gaussian 16 at Fri Aug 22 15:47:21 2025.
