 Gaussian 16, Revision C.01,
 Gaussian 16:  ES64L-G16RevC.01  3-Jul-2019

 -----------------------------------------
 # sp b3lyp/6-311g** Force nosymm scf=(qc)
 -----------------------------------------

 -------------------
 Title Card Required
 -------------------
 Symbolic Z-matrix:
 Charge =  0 Multiplicity = 2

                          Input orientation:
 ---------------------------------------------------------------------
 Center     Atomic      Atomic             Coordinates (Angstroms)
 Number     Number       Type             X           Y           Z
 ---------------------------------------------------------------------
      1          1           0        0.000000    0.000000    0.000000
      2          1           0       -3.750000    0.000000    0.000000
      3          9           0        1.050000    0.000000    0.000000
 ---------------------------------------------------------------------

 SCF Done:  E(UB3LYP) =  -100.958253454     a.u. after    6 cycles

 Alpha  occ. eigenvalues --  -24.64255  -1.14883  -0.50617  -0.38442  -0.38442
 Alpha  occ. eigenvalues --   -0.33547
 Alpha virt. eigenvalues --   -0.00934   0.23285   0.32731   0.93801   0.93801
 Alpha virt. eigenvalues --    0.99056   1.23895   1.23963   1.23963   1.28914
 Alpha virt. eigenvalues --    1.35518   1.35518   1.84372   2.13904   2.32921

  Beta  occ. eigenvalues --  -24.64254  -1.14879  -0.50613  -0.38441  -0.38441
  Beta virt. eigenvalues --   -0.05575  -0.00450   0.31154   0.39472   0.93802
  Beta virt. eigenvalues --    0.93802   0.99058   1.28872   1.35516   1.35516
  Beta virt. eigenvalues --    1.49967   1.50183   1.50183   1.84403   2.32493

 Mulliken charges and spin densities:
               1          2
     1  H    0.331181   0.000286
     2  H    0.000613   0.999316
     3  F   -0.331794   0.000398
 Sum of Mulliken charges =   0.00000   1.00000

 Dipole moment (field-independent basis, Debye):
    X=             -2.0985    Y=             -0.0000    Z=              0.0000  Tot=              2.0985
 Quadrupole moment (field-independent basis, Debye-Ang):
   XX=             -8.4131   YY=             -7.0063   ZZ=             -7.0063
   XY=             -0.0000   XZ=             -0.0000   YZ=              0.0000

  Exact polarizability:       7.096       0.000       2.380      -0.000      -0.000       2.380
 Approx polarizability:       9.071      -0.000       2.348      -0.000      -0.000       2.348

 ******    1 imaginary frequencies (negative Signs) ******

                      1                      2                      3
                      A                      A                      A
 Frequencies --    -38.2059              1124.2793              1124.2793
 Red. masses --      1.0532                 1.0373                 1.0373
 Frc consts  --      0.0009                 0.7725                 0.7725
 IR Inten    --      0.0274               164.3274               164.3274

                      4
                      A
 Frequencies --   2453.0901
 Red. masses --      1.0583
 Frc consts  --      3.7524
 IR Inten    --     81.5769

 - Thermochemistry -
 -------------------
 Temperature   298.150 Kelvin.  Pressure   1.00000 Atm.
 Atom     1 has atomic number  1 and mass   1.00783

 Molecular mass:    21.01405 amu.
 Principal axes and moments of inertia in atomic units:
                           1         2         3
     Eigenvalues --     0.00000  80.98202  80.98202
           X            1.00000  -0.00000   0.00000
           Y            0.00000   1.00000   0.00000
           Z            0.00000   0.00000   1.00000
 This molecule is a prolate symmetric top.
 Rotational symmetry number  1.
 Rotational temperature (Kelvin)      1.06955
 Rotational constant (GHZ):          22.285702
    1 imaginary frequencies ignored.
 Zero-point vibrational energy      28122.1 (Joules/Mol)
                                    6.72134 (Kcal/Mol)
 Vibrational temperatures:   1617.59  1617.59  3529.45
          (Kelvin)

 Zero-point correction=                           0.010711 (Hartree/Particle)
 Thermal correction to Energy=                    0.013117
 Thermal correction to Enthalpy=                  0.014061
 Thermal correction to Gibbs Free Energy=        -0.009569
 Sum of electronic and zero-point Energies=           -100.947542
 Sum of electronic and thermal Energies=              -100.945136
 Sum of electronic and thermal Enthalpies=            -100.944192
 Sum of electronic and thermal Free Energies=         -100.967823

                     E (Thermal)             CV                S
                      KCal/Mol        Cal/Mol-Kelvin    Cal/Mol-Kelvin
 Total                    8.231              5.490             49.734
 Electronic               0.000              0.000              1.377
 Translational            0.889              2.981             35.068
 Rotational               0.592              1.987             13.176
 Vibrational              6.750              0.522              0.113

 Normal termination of Gaussian 16 at Fri Aug 22 16:04:05 2025.
