 Gaussian 16, Revision C.01,
 Gaussian 16:  ES64L-G16RevC.01  3-Jul-2019

 -----------------------------------------
 # sp b3lyp/6-311g** Force nosymm scf=(qc)
 -----------------------------------------

 -------------------
 Title Card Required
 -------------------
 Symbolic Z-matrix:
 Charge =  0 Multiplicity = 2

                          Input orientation:
 ---------------------------------------------------------------------
 Center     Atomic      Atomic             Coordinates (Angstroms)
 Number     Number       Type             X           Y           Z
 ---------------------------------------------------------------------
      1          1           0        0.000000    0.000000    0.000000
      2          1           0       -0.900000    0.000000    0.000000
      3          9           0        1.850000    0.000000    0.000000
 ---------------------------------------------------------------------

 SCF Done:  E(UB3LYP) =  -100.925955933     a.u. after    7 cycles

 Alpha  occ. eigenvalues --  -24.73180  -1.19483  -0.53660  -0.44058  -0.44058
 Alpha  occ. eigenvalues --   -0.42437
 Alpha virt. eigenvalues --    0.03858   0.20677   0.39249   0.90666   0.90666
 Alpha virt. eigenvalues --    0.93280   1.06826   1.06826   1.12850   1.60396
 Alpha virt. eigenvalues --    1.70369   1.70369   2.15936   2.35781   2.75929

  Beta  occ. eigenvalues --  -24.70307  -1.11370  -0.42985  -0.41210  -0.41210
  Beta virt. eigenvalues --   -0.24997   0.05156   0.21461   0.40034   0.91907
  Beta virt. eigenvalues --    0.91907   1.00751   1.08083   1.08083   1.15838
  Beta virt. eigenvalues --    1.62739   1.71123   1.71123   2.17173   2.37101

 Mulliken charges and spin densities:
               1          2
     1  H    0.040337  -0.052036
     2  H    0.039352   0.156457
     3  F   -0.079689   0.895579
 Sum of Mulliken charges =   0.00000   1.00000

 Dipole moment (field-independent basis, Debye):
    X=             -0.8710    Y=             -0.0000    Z=             -0.0000  Tot=              0.8710
 Quadrupole moment (field-independent basis, Debye-Ang):
   XX=             -6.5515   YY=             -7.0603   ZZ=             -7.0603
   XY=              0.0000   XZ=             -0.0000   YZ=             -0.0000

  Exact polarizability:      26.041      -0.000       2.193       0.000      -0.000       2.193
 Approx polarizability:      32.946       0.000       2.226      -0.000       0.000       2.226

 ******    1 imaginary frequencies (negative Signs) ******

                      1                      2                      3
                      A                      A                      A
 Frequencies --   -427.3772              1307.7457              1307.7457
 Red. masses --      1.1076                 1.0116                 1.0116
 Frc consts  --      0.1192                 1.0193                 1.0193
 IR Inten    --    104.2349                 0.0001                 0.0001

                      4
                      A
 Frequencies --   2394.1710
 Red. masses --      1.0086
 Frc consts  --      3.4063
 IR Inten    --    583.6957

 - Thermochemistry -
 -------------------
 Temperature   298.150 Kelvin.  Pressure   1.00000 Atm.
 Atom     1 has atomic number  1 and mass   1.00783

 Molecular mass:    21.01405 amu.
 Principal axes and moments of inertia in atomic units:
                           1         2         3
     Eigenvalues --     0.00000  35.88275  35.88275
           X            1.00000  -0.00000   0.00000
           Y            0.00000   1.00000   0.00000
           Z            0.00000   0.00000   1.00000
 This molecule is a prolate symmetric top.
 Rotational symmetry number  1.
 Rotational temperature (Kelvin)      2.41380
 Rotational constant (GHZ):          50.295515
    1 imaginary frequencies ignored.
 Zero-point vibrational energy      29964.4 (Joules/Mol)
                                    7.16167 (Kcal/Mol)
 Vibrational temperatures:   1881.55  1881.55  3444.68
          (Kelvin)

 Zero-point correction=                           0.011413 (Hartree/Particle)
 Thermal correction to Energy=                    0.013795
 Thermal correction to Enthalpy=                  0.014739
 Thermal correction to Gibbs Free Energy=        -0.008094
 Sum of electronic and zero-point Energies=           -100.914543
 Sum of electronic and thermal Energies=              -100.912161
 Sum of electronic and thermal Enthalpies=            -100.911217
 Sum of electronic and thermal Free Energies=         -100.934050

                     E (Thermal)             CV                S
                      KCal/Mol        Cal/Mol-Kelvin    Cal/Mol-Kelvin
 Total                    8.657              5.259             48.057
 Electronic               0.000              0.000              1.377
 Translational            0.889              2.981             35.068
 Rotational               0.592              1.987             11.558
 Vibrational              7.175              0.291              0.053

 Normal termination of Gaussian 16 at Fri Aug 22 16:45:41 2025.
