 Gaussian 16, Revision C.01,
 Gaussian 16:  ES64L-G16RevC.01  3-Jul-2019

 -----------------------------------------
 # sp b3lyp/6-311g** Force nosymm scf=(qc)
 -----------------------------------------

 -------------------
 Title Card Required
 -------------------
 Symbolic Z-matrix:
 Charge =  0 Multiplicity = 2

                          Input orientation:
 ---------------------------------------------------------------------
 Center     Atomic      Atomic             Coordinates (Angstroms)
 Number     Number       Type             X           Y           Z
 ---------------------------------------------------------------------
      1          1           0        0.000000    0.000000    0.000000
      2          1           0       -3.750000    0.000000    0.000000
      3          9           0        3.050000    0.000000    0.000000
 ---------------------------------------------------------------------

 SCF Done:  E(UB3LYP) =  -100.760589708     a.u. after   22 cycles

 Alpha  occ. eigenvalues --  -24.74251  -1.20299  -0.53371  -0.44814  -0.44814
 Alpha  occ. eigenvalues --   -0.32466
 Alpha virt. eigenvalues --   -0.07737   0.23927   0.36296   0.89187   0.92176
 Alpha virt. eigenvalues --    0.92176   1.03606   1.25033   1.25033   1.25091
 Alpha virt. eigenvalues --    1.44487   1.44487   1.44830   2.14550   2.40705

  Beta  occ. eigenvalues --  -24.71212  -1.11587  -0.41772  -0.41772  -0.33606
  Beta virt. eigenvalues --   -0.24868  -0.06183   0.23800   0.38089   0.93641
  Beta virt. eigenvalues --    0.93641   0.97936   1.07365   1.23729   1.23729
  Beta virt. eigenvalues --    1.24015   1.46294   1.46490   1.46490   2.14706

 Mulliken charges and spin densities:
               1          2
     1  H    0.033488  -0.961956
     2  H    0.000217   0.998882
     3  F   -0.033704   0.963075
 Sum of Mulliken charges =  -0.00000   1.00000

 Dipole moment (field-independent basis, Debye):
    X=             -0.5319    Y=             -0.0000    Z=             -0.0000  Tot=              0.5319
 Quadrupole moment (field-independent basis, Debye-Ang):
   XX=             -8.2307   YY=             -7.6085   ZZ=             -7.6085
   XY=              0.0000   XZ=              0.0000   YZ=             -0.0000

  Exact polarizability:      30.857       0.000       2.027       0.000      -0.000       2.027
 Approx polarizability:      30.827       0.000       1.927       0.000       0.000       1.927

 ******    2 imaginary frequencies (negative Signs) ******

                      1                      2                      3
                      A                      A                      A
 Frequencies --   -350.6281               -90.5239               121.1997
 Red. masses --      1.0507                 1.0609                 1.0206
 Frc consts  --      0.0761                 0.0051                 0.0088
 IR Inten    --     36.1401                 0.2345                 1.0639

                      4
                      A
 Frequencies --    121.1998
 Red. masses --      1.0206
 Frc consts  --      0.0088
 IR Inten    --      1.0639

 - Thermochemistry -
 -------------------
 Temperature   298.150 Kelvin.  Pressure   1.00000 Atm.
 Atom     1 has atomic number  1 and mass   1.00783

 Molecular mass:    21.01405 amu.
 Principal axes and moments of inertia in atomic units:
                           1         2         3
     Eigenvalues --     0.00000 183.15118 183.15118
           X            1.00000  -0.00000   0.00000
           Y            0.00000   1.00000   0.00000
           Z            0.00000   0.00000   1.00000
 This molecule is a prolate symmetric top.
 Rotational symmetry number  1.
 Rotational temperature (Kelvin)      0.47291
 Rotational constant (GHZ):           9.853833
    2 imaginary frequencies ignored.
 Zero-point vibrational energy       1449.9 (Joules/Mol)
                                    0.34653 (Kcal/Mol)
 Warning -- explicit consideration of   2 degrees of freedom as
           vibrations may cause significant error
 Vibrational temperatures:    174.38   174.38
          (Kelvin)

 Zero-point correction=                           0.000552 (Hartree/Particle)
 Thermal correction to Energy=                    0.004302
 Thermal correction to Enthalpy=                  0.005247
 Thermal correction to Gibbs Free Energy=        -0.022029
 Sum of electronic and zero-point Energies=           -100.760037
 Sum of electronic and thermal Energies=              -100.756287
 Sum of electronic and thermal Enthalpies=            -100.755343
 Sum of electronic and thermal Free Energies=         -100.782618

                     E (Thermal)             CV                S
                      KCal/Mol        Cal/Mol-Kelvin    Cal/Mol-Kelvin
 Total                    2.700              8.831             57.405
 Electronic               0.000              0.000              1.377
 Translational            0.889              2.981             35.068
 Rotational               0.592              1.987             14.798
 Vibrational              1.219              3.863              6.162
 Vibration     1          0.609              1.932              3.081
 Vibration     2          0.609              1.932              3.081

 Normal termination of Gaussian 16 at Fri Aug 22 19:45:35 2025.
