 Gaussian 16, Revision C.01,
 Gaussian 16:  ES64L-G16RevC.01  3-Jul-2019

 -----------------------------------------
 # sp b3lyp/6-311g** Force nosymm scf=(qc)
 -----------------------------------------

 -------------------
 Title Card Required
 -------------------
 Symbolic Z-matrix:
 Charge =  0 Multiplicity = 2

                          Input orientation:
 ---------------------------------------------------------------------
 Center     Atomic      Atomic             Coordinates (Angstroms)
 Number     Number       Type             X           Y           Z
 ---------------------------------------------------------------------
      1          1           0        0.000000    0.000000    0.000000
      2          1           0       -2.300000    0.000000    0.000000
      3          9           0        3.600000    0.000000    0.000000
 ---------------------------------------------------------------------

 SCF Done:  E(UB3LYP) =  -100.765667866     a.u. after   28 cycles

 Alpha  occ. eigenvalues --  -24.75628  -1.21573  -0.54751  -0.45972  -0.45972
 Alpha  occ. eigenvalues --   -0.32770
 Alpha virt. eigenvalues --   -0.10096   0.25877   0.33757   0.87299   0.91323
 Alpha virt. eigenvalues --    0.91323   1.01529   1.24995   1.24995   1.25314
 Alpha virt. eigenvalues --    1.40079   1.40079   1.43986   2.14818   2.35648

  Beta  occ. eigenvalues --  -24.72501  -1.12585  -0.42838  -0.42838  -0.32952
  Beta virt. eigenvalues --   -0.25628  -0.09760   0.25707   0.34269   0.92817
  Beta virt. eigenvalues --    0.92817   0.96535   1.05602   1.24777   1.24777
  Beta virt. eigenvalues --    1.25092   1.40580   1.40580   1.44441   2.15269

 Mulliken charges and spin densities:
               1          2
     1  H    0.004581  -0.936437
     2  H    0.002920   0.944976
     3  F   -0.007501   0.991461
 Sum of Mulliken charges =   0.00000   1.00000

 Dipole moment (field-independent basis, Debye):
    X=             -0.1705    Y=              0.0000    Z=             -0.0000  Tot=              0.1705
 Quadrupole moment (field-independent basis, Debye-Ang):
   XX=             -6.8387   YY=             -7.6866   ZZ=             -7.6866
   XY=             -0.0000   XZ=             -0.0000   YZ=              0.0000

  Exact polarizability:      34.116       0.000       2.007       0.000       0.000       2.007
 Approx polarizability:      26.014      -0.000       1.930      -0.000       0.000       1.930

 ******    2 imaginary frequencies (negative Signs) ******

                      1                      2                      3
                      A                      A                      A
 Frequencies --   -886.4055              -123.6894               336.7421
 Red. masses --      1.0079                 1.1085                 1.0134
 Frc consts  --      0.4666                 0.0100                 0.0677
 IR Inten    --      4.2941                 4.4984                 0.0123

                      4
                      A
 Frequencies --    336.7421
 Red. masses --      1.0134
 Frc consts  --      0.0677
 IR Inten    --      0.0123

 - Thermochemistry -
 -------------------
 Temperature   298.150 Kelvin.  Pressure   1.00000 Atm.
 Atom     1 has atomic number  1 and mass   1.00783

 Molecular mass:    21.01405 amu.
 Principal axes and moments of inertia in atomic units:
                           1         2         3
     Eigenvalues --     0.00000 156.34686 156.34686
           X            1.00000  -0.00000   0.00000
           Y            0.00000   1.00000   0.00000
           Z            0.00000   0.00000   1.00000
 This molecule is a prolate symmetric top.
 Rotational symmetry number  1.
 Rotational temperature (Kelvin)      0.55399
 Rotational constant (GHZ):          11.543188
    2 imaginary frequencies ignored.
 Zero-point vibrational energy       4028.3 (Joules/Mol)
                                    0.96279 (Kcal/Mol)
 Warning -- explicit consideration of   2 degrees of freedom as
           vibrations may cause significant error
 Vibrational temperatures:    484.50   484.50
          (Kelvin)

 Zero-point correction=                           0.001534 (Hartree/Particle)
 Thermal correction to Energy=                    0.004647
 Thermal correction to Enthalpy=                  0.005591
 Thermal correction to Gibbs Free Energy=        -0.019773
 Sum of electronic and zero-point Energies=           -100.764134
 Sum of electronic and thermal Energies=              -100.761021
 Sum of electronic and thermal Enthalpies=            -100.760077
 Sum of electronic and thermal Free Energies=         -100.785441

                     E (Thermal)             CV                S
                      KCal/Mol        Cal/Mol-Kelvin    Cal/Mol-Kelvin
 Total                    2.916              8.172             53.384
 Electronic               0.000              0.000              1.377
 Translational            0.889              2.981             35.068
 Rotational               0.592              1.987             14.483
 Vibrational              1.435              3.204              2.455
 Vibration     1          0.717              1.602              1.228
 Vibration     2          0.717              1.602              1.228

 Normal termination of Gaussian 16 at Fri Aug 22 23:06:02 2025.
