 Gaussian 16, Revision C.01,
 Gaussian 16:  ES64L-G16RevC.01  3-Jul-2019

 -----------------------------------------
 # sp b3lyp/6-311g** Force nosymm scf=(qc)
 -----------------------------------------

 -------------------
 Title Card Required
 -------------------
 Symbolic Z-matrix:
 Charge =  0 Multiplicity = 2

                          Input orientation:
 ---------------------------------------------------------------------
 Center     Atomic      Atomic             Coordinates (Angstroms)
 Number     Number       Type             X           Y           Z
 ---------------------------------------------------------------------
      1          1           0        0.000000    0.000000    0.000000
      2          1           0       -2.000000    0.000000    0.000000
      3          9           0        2.250000    0.000000    0.000000
 ---------------------------------------------------------------------

 SCF Done:  E(UB3LYP) =  -100.788659623     a.u. after   14 cycles

 Alpha  occ. eigenvalues --  -24.70168  -1.16450  -0.49262  -0.41372  -0.41372
 Alpha  occ. eigenvalues --   -0.35580
 Alpha virt. eigenvalues --   -0.13221   0.24392   0.31748   0.88457   0.94385
 Alpha virt. eigenvalues --    0.94385   1.05240   1.22341   1.22341   1.25152
 Alpha virt. eigenvalues --    1.34412   1.34412   1.52025   2.10937   2.33193

  Beta  occ. eigenvalues --  -24.67486  -1.08865  -0.38709  -0.38709  -0.36138
  Beta virt. eigenvalues --   -0.22598  -0.11730   0.26536   0.31851   0.93109
  Beta virt. eigenvalues --    0.95576   0.95576   1.08362   1.22518   1.22518
  Beta virt. eigenvalues --    1.31863   1.36608   1.36608   1.50861   2.11503

 Mulliken charges and spin densities:
               1          2
     1  H    0.090773  -0.720180
     2  H    0.036973   0.875008
     3  F   -0.127747   0.845172
 Sum of Mulliken charges =  -0.00000   1.00000

 Dipole moment (field-independent basis, Debye):
    X=             -1.8033    Y=             -0.0000    Z=             -0.0000  Tot=              1.8033
 Quadrupole moment (field-independent basis, Debye-Ang):
   XX=             -8.4859   YY=             -7.6148   ZZ=             -7.6148
   XY=             -0.0000   XZ=             -0.0000   YZ=             -0.0000

  Exact polarizability:      55.236      -0.000       2.026      -0.000       0.000       2.026
 Approx polarizability:      62.940       0.000       1.940       0.000       0.000       1.940

 ******    2 imaginary frequencies (negative Signs) ******

                      1                      2                      3
                      A                      A                      A
 Frequencies --  -1441.4795              -483.7925               590.5143
 Red. masses --      1.0120                 1.1035                 1.0166
 Frc consts  --      1.2389                 0.1522                 0.2089
 IR Inten    --     96.1259                49.7197                 4.8244

                      4
                      A
 Frequencies --    590.5143
 Red. masses --      1.0166
 Frc consts  --      0.2089
 IR Inten    --      4.8244

 - Thermochemistry -
 -------------------
 Temperature   298.150 Kelvin.  Pressure   1.00000 Atm.
 Atom     1 has atomic number  1 and mass   1.00783

 Molecular mass:    21.01405 amu.
 Principal axes and moments of inertia in atomic units:
                           1         2         3
     Eigenvalues --     0.00000  75.93443  75.93443
           X            1.00000  -0.00000   0.00000
           Y            0.00000   1.00000   0.00000
           Z            0.00000   0.00000   1.00000
 This molecule is a prolate symmetric top.
 Rotational symmetry number  1.
 Rotational temperature (Kelvin)      1.14064
 Rotational constant (GHZ):          23.767100
    2 imaginary frequencies ignored.
 Zero-point vibrational energy       7064.1 (Joules/Mol)
                                    1.68837 (Kcal/Mol)
 Warning -- explicit consideration of   2 degrees of freedom as
           vibrations may cause significant error
 Vibrational temperatures:    849.62   849.62
          (Kelvin)

 Zero-point correction=                           0.002691 (Hartree/Particle)
 Thermal correction to Energy=                    0.005382
 Thermal correction to Enthalpy=                  0.006326
 Thermal correction to Gibbs Free Energy=        -0.017633
 Sum of electronic and zero-point Energies=           -100.785969
 Sum of electronic and thermal Energies=              -100.783278
 Sum of electronic and thermal Enthalpies=            -100.782334
 Sum of electronic and thermal Free Energies=         -100.806293

                     E (Thermal)             CV                S
                      KCal/Mol        Cal/Mol-Kelvin    Cal/Mol-Kelvin
 Total                    3.377              7.072             50.426
 Electronic               0.000              0.000              1.377
 Translational            0.889              2.981             35.068
 Rotational               0.592              1.987             13.048
 Vibrational              1.896              2.104              0.933
 Vibration     1          0.948              1.052              0.466
 Vibration     2          0.948              1.052              0.466

 Normal termination of Gaussian 16 at Fri Aug 22 17:16:27 2025.
