 Gaussian 16, Revision C.01,
 Gaussian 16:  ES64L-G16RevC.01  3-Jul-2019

 -----------------------------------------
 # sp b3lyp/6-311g** Force nosymm scf=(qc)
 -----------------------------------------

 -------------------
 Title Card Required
 -------------------
 Symbolic Z-matrix:
 Charge =  0 Multiplicity = 2

                          Input orientation:
 ---------------------------------------------------------------------
 Center     Atomic      Atomic             Coordinates (Angstroms)
 Number     Number       Type             X           Y           Z
 ---------------------------------------------------------------------
      1          1           0        0.000000    0.000000    0.000000
      2          1           0       -3.250000    0.000000    0.000000
      3          9           0        1.450000    0.000000    0.000000
 ---------------------------------------------------------------------

 SCF Done:  E(UB3LYP) =  -100.865921031     a.u. after    8 cycles

 Alpha  occ. eigenvalues --  -24.64329  -1.09940  -0.43868  -0.36532  -0.36532
 Alpha  occ. eigenvalues --   -0.34253
 Alpha virt. eigenvalues --   -0.13142   0.20849   0.27849   0.93311   0.93311
 Alpha virt. eigenvalues --    1.03521   1.12392   1.23263   1.23263   1.23456
 Alpha virt. eigenvalues --    1.31974   1.31974   1.72652   2.13725   2.19863

  Beta  occ. eigenvalues --  -24.64297  -1.09858  -0.43785  -0.36502  -0.36502
  Beta virt. eigenvalues --   -0.13695  -0.06811   0.23928   0.37910   0.93300
  Beta virt. eigenvalues --    0.93300   1.03607   1.12459   1.31844   1.31844
  Beta virt. eigenvalues --    1.45309   1.45775   1.45775   1.72656   2.19614

 Mulliken charges and spin densities:
               1          2
     1  H    0.351682  -0.006535
     2  H    0.003239   0.996514
     3  F   -0.354921   0.010021
 Sum of Mulliken charges =   0.00000   1.00000

 Dipole moment (field-independent basis, Debye):
    X=             -2.5913    Y=              0.0000    Z=              0.0000  Tot=              2.5913
 Quadrupole moment (field-independent basis, Debye-Ang):
   XX=             -9.6359   YY=             -7.2945   ZZ=             -7.2945
   XY=              0.0000   XZ=              0.0000   YZ=             -0.0000

  Exact polarizability:      15.225      -0.000       2.212       0.000       0.000       2.212
 Approx polarizability:      26.342      -0.000       2.142       0.000      -0.000       2.142

 ******    2 imaginary frequencies (negative Signs) ******

                      1                      2                      3
                      A                      A                      A
 Frequencies --  -1109.2145              -102.9595              1049.6966
 Red. masses --      1.0567                 1.0548                 1.0299
 Frc consts  --      0.7660                 0.0066                 0.6686
 IR Inten    --     56.2960                 0.4131               119.3802

                      4
                      A
 Frequencies --   1049.6966
 Red. masses --      1.0299
 Frc consts  --      0.6686
 IR Inten    --    119.3802

 - Thermochemistry -
 -------------------
 Temperature   298.150 Kelvin.  Pressure   1.00000 Atm.
 Atom     1 has atomic number  1 and mass   1.00783

 Molecular mass:    21.01405 amu.
 Principal axes and moments of inertia in atomic units:
                           1         2         3
     Eigenvalues --     0.00000  80.54059  80.54059
           X            1.00000  -0.00000   0.00000
           Y            0.00000   1.00000   0.00000
           Z            0.00000   0.00000   1.00000
 This molecule is a prolate symmetric top.
 Rotational symmetry number  1.
 Rotational temperature (Kelvin)      1.07541
 Rotational constant (GHZ):          22.407847
    2 imaginary frequencies ignored.
 Zero-point vibrational energy      12557.2 (Joules/Mol)
                                    3.00123 (Kcal/Mol)
 Vibrational temperatures:   1510.28  1510.28
          (Kelvin)

 Zero-point correction=                           0.004783 (Hartree/Particle)
 Thermal correction to Energy=                    0.007204
 Thermal correction to Enthalpy=                  0.008148
 Thermal correction to Gibbs Free Energy=        -0.015496
 Sum of electronic and zero-point Energies=           -100.861138
 Sum of electronic and thermal Energies=              -100.858717
 Sum of electronic and thermal Enthalpies=            -100.857773
 Sum of electronic and thermal Free Energies=         -100.881417

                     E (Thermal)             CV                S
                      KCal/Mol        Cal/Mol-Kelvin    Cal/Mol-Kelvin
 Total                    4.521              5.620             49.763
 Electronic               0.000              0.000              1.377
 Translational            0.889              2.981             35.068
 Rotational               0.592              1.987             13.165
 Vibrational              3.039              0.652              0.153

 Normal termination of Gaussian 16 at Fri Aug 22 16:23:42 2025.
