 Gaussian 16, Revision C.01,
 Gaussian 16:  ES64L-G16RevC.01  3-Jul-2019

 -----------------------------------------
 # sp b3lyp/6-311g** Force nosymm scf=(qc)
 -----------------------------------------

 -------------------
 Title Card Required
 -------------------
 Symbolic Z-matrix:
 Charge =  0 Multiplicity = 2

                          Input orientation:
 ---------------------------------------------------------------------
 Center     Atomic      Atomic             Coordinates (Angstroms)
 Number     Number       Type             X           Y           Z
 ---------------------------------------------------------------------
      1          1           0        0.000000    0.000000    0.000000
      2          1           0       -3.850000    0.000000    0.000000
      3          9           0        2.100000    0.000000    0.000000
 ---------------------------------------------------------------------

 SCF Done:  E(UB3LYP) =  -100.781146651     a.u. after   22 cycles

 Alpha  occ. eigenvalues --  -24.69027  -1.15351  -0.48054  -0.40439  -0.40439
 Alpha  occ. eigenvalues --   -0.33121
 Alpha virt. eigenvalues --   -0.13013   0.22681   0.32477   0.88271   0.94709
 Alpha virt. eigenvalues --    0.94709   1.05732   1.24383   1.24383   1.24391
 Alpha virt. eigenvalues --    1.36496   1.36496   1.55835   2.13775   2.31084

  Beta  occ. eigenvalues --  -24.66512  -1.08284  -0.37953  -0.37953  -0.37336
  Beta virt. eigenvalues --   -0.21383  -0.06371   0.22766   0.38063   0.90300
  Beta virt. eigenvalues --    0.95599   0.95599   1.08104   1.21592   1.21592
  Beta virt. eigenvalues --    1.46048   1.46468   1.46468   1.47639   2.11399

 Mulliken charges and spin densities:
               1          2
     1  H    0.166875  -0.790534
     2  H    0.000591   0.999062
     3  F   -0.167466   0.791472
 Sum of Mulliken charges =  -0.00000   1.00000

 Dipole moment (field-independent basis, Debye):
    X=             -1.7604    Y=              0.0000    Z=             -0.0000  Tot=              1.7604
 Quadrupole moment (field-independent basis, Debye-Ang):
   XX=             -9.9779   YY=             -7.5066   ZZ=             -7.5066
   XY=              0.0000   XZ=             -0.0000   YZ=             -0.0000

  Exact polarizability:      26.124       0.000       2.050      -0.000      -0.000       2.050
 Approx polarizability:      37.333       0.000       1.936      -0.000      -0.000       1.936

 ******    2 imaginary frequencies (negative Signs) ******

                      1                      2                      3
                      A                      A                      A
 Frequencies --   -981.8384               -79.4995               416.0355
 Red. masses --      1.0576                 1.0540                 1.0267
 Frc consts  --      0.6007                 0.0039                 0.1047
 IR Inten    --    114.3328                 0.0546                26.7127

                      4
                      A
 Frequencies --    416.0355
 Red. masses --      1.0267
 Frc consts  --      0.1047
 IR Inten    --     26.7127

 - Thermochemistry -
 -------------------
 Temperature   298.150 Kelvin.  Pressure   1.00000 Atm.
 Atom     1 has atomic number  1 and mass   1.00783

 Molecular mass:    21.01405 amu.
 Principal axes and moments of inertia in atomic units:
                           1         2         3
     Eigenvalues --     0.00000 132.10017 132.10017
           X            1.00000  -0.00000   0.00000
           Y            0.00000   1.00000   0.00000
           Z            0.00000   0.00000   1.00000
 This molecule is a prolate symmetric top.
 Rotational symmetry number  1.
 Rotational temperature (Kelvin)      0.65567
 Rotational constant (GHZ):          13.661915
    2 imaginary frequencies ignored.
 Zero-point vibrational energy       4976.9 (Joules/Mol)
                                    1.18951 (Kcal/Mol)
 Warning -- explicit consideration of   2 degrees of freedom as
           vibrations may cause significant error
 Vibrational temperatures:    598.58   598.58
          (Kelvin)

 Zero-point correction=                           0.001896 (Hartree/Particle)
 Thermal correction to Energy=                    0.004844
 Thermal correction to Enthalpy=                  0.005788
 Thermal correction to Gibbs Free Energy=        -0.019111
 Sum of electronic and zero-point Energies=           -100.779251
 Sum of electronic and thermal Energies=              -100.776302
 Sum of electronic and thermal Enthalpies=            -100.775358
 Sum of electronic and thermal Free Energies=         -100.800257

                     E (Thermal)             CV                S
                      KCal/Mol        Cal/Mol-Kelvin    Cal/Mol-Kelvin
 Total                    3.040              7.839             52.405
 Electronic               0.000              0.000              1.377
 Translational            0.889              2.981             35.068
 Rotational               0.592              1.987             14.148
 Vibrational              1.559              2.871              1.811
 Vibration     1          0.779              1.435              0.906
 Vibration     2          0.779              1.435              0.906

 Normal termination of Gaussian 16 at Fri Aug 22 17:05:35 2025.
