 Gaussian 16, Revision C.01,
 Gaussian 16:  ES64L-G16RevC.01  3-Jul-2019

 -----------------------------------------
 # sp b3lyp/6-311g** Force nosymm scf=(qc)
 -----------------------------------------

 -------------------
 Title Card Required
 -------------------
 Symbolic Z-matrix:
 Charge =  0 Multiplicity = 2

                          Input orientation:
 ---------------------------------------------------------------------
 Center     Atomic      Atomic             Coordinates (Angstroms)
 Number     Number       Type             X           Y           Z
 ---------------------------------------------------------------------
      1          1           0        0.000000    0.000000    0.000000
      2          1           0       -2.650000    0.000000    0.000000
      3          9           0        0.950000    0.000000    0.000000
 ---------------------------------------------------------------------

 SCF Done:  E(UB3LYP) =  -100.971289719     a.u. after    6 cycles

 Alpha  occ. eigenvalues --  -24.64025  -1.17373  -0.52705  -0.39141  -0.39141
 Alpha  occ. eigenvalues --   -0.34654
 Alpha virt. eigenvalues --    0.02790   0.25227   0.36612   0.94290   0.94290
 Alpha virt. eigenvalues --    0.98125   1.20719   1.22892   1.22892   1.36037
 Alpha virt. eigenvalues --    1.36553   1.36553   1.96610   2.14103   2.35248

  Beta  occ. eigenvalues --  -24.64012  -1.17340  -0.52653  -0.39130  -0.39130
  Beta virt. eigenvalues --   -0.08874   0.04345   0.36130   0.38294   0.94292
  Beta virt. eigenvalues --    0.94292   0.98159   1.29799   1.36536   1.36536
  Beta virt. eigenvalues --    1.45672   1.45672   1.50512   1.96739   2.34866

 Mulliken charges and spin densities:
               1          2
     1  H    0.304448   0.002551
     2  H    0.004918   0.993199
     3  F   -0.309366   0.004250
 Sum of Mulliken charges =   0.00000   1.00000

 Dipole moment (field-independent basis, Debye):
    X=             -2.0217    Y=             -0.0000    Z=             -0.0000  Tot=              2.0217
 Quadrupole moment (field-independent basis, Debye-Ang):
   XX=             -7.8824   YY=             -6.9120   ZZ=             -6.9120
   XY=             -0.0000   XZ=              0.0000   YZ=             -0.0000

  Exact polarizability:       7.695       0.000       2.435      -0.000       0.000       2.435
 Approx polarizability:       8.662       0.000       2.413       0.000       0.000       2.413

 ******    1 imaginary frequencies (negative Signs) ******

                      1                      2                      3
                      A                      A                      A
 Frequencies --    -71.3945               663.5548               663.5548
 Red. masses --      1.0531                 1.0334                 1.0334
 Frc consts  --      0.0032                 0.2681                 0.2681
 IR Inten    --      0.5519               164.1433               164.1433

                      4
                      A
 Frequencies --   3673.1947
 Red. masses --      1.0585
 Frc consts  --      8.4143
 IR Inten    --    118.2232

 - Thermochemistry -
 -------------------
 Temperature   298.150 Kelvin.  Pressure   1.00000 Atm.
 Atom     1 has atomic number  1 and mass   1.00783

 Molecular mass:    21.01405 amu.
 Principal axes and moments of inertia in atomic units:
                           1         2         3
     Eigenvalues --     0.00000  46.31786  46.31786
           X            1.00000  -0.00000   0.00000
           Y            0.00000   1.00000   0.00000
           Z            0.00000   0.00000   1.00000
 This molecule is a prolate symmetric top.
 Rotational symmetry number  1.
 Rotational temperature (Kelvin)      1.86999
 Rotational constant (GHZ):          38.964260
    1 imaginary frequencies ignored.
 Zero-point vibrational energy      29908.5 (Joules/Mol)
                                    7.14829 (Kcal/Mol)
 Vibrational temperatures:    954.71   954.71  5284.91
          (Kelvin)

 Zero-point correction=                           0.011392 (Hartree/Particle)
 Thermal correction to Energy=                    0.014008
 Thermal correction to Enthalpy=                  0.014953
 Thermal correction to Gibbs Free Energy=        -0.008431
 Sum of electronic and zero-point Energies=           -100.959898
 Sum of electronic and thermal Energies=              -100.957281
 Sum of electronic and thermal Enthalpies=            -100.956337
 Sum of electronic and thermal Free Energies=         -100.979721

                     E (Thermal)             CV                S
                      KCal/Mol        Cal/Mol-Kelvin    Cal/Mol-Kelvin
 Total                    8.790              6.769             49.216
 Electronic               0.000              0.000              1.377
 Translational            0.889              2.981             35.068
 Rotational               0.592              1.987             12.066
 Vibrational              7.309              1.801              0.705

 Normal termination of Gaussian 16 at Fri Aug 22 15:58:35 2025.
