 Gaussian 16, Revision C.01,
 Gaussian 16:  ES64L-G16RevC.01  3-Jul-2019

 -----------------------------------------
 # sp b3lyp/6-311g** Force nosymm scf=(qc)
 -----------------------------------------

 -------------------
 Title Card Required
 -------------------
 Symbolic Z-matrix:
 Charge =  0 Multiplicity = 2

                          Input orientation:
 ---------------------------------------------------------------------
 Center     Atomic      Atomic             Coordinates (Angstroms)
 Number     Number       Type             X           Y           Z
 ---------------------------------------------------------------------
      1          1           0        0.000000    0.000000    0.000000
      2          1           0       -1.800000    0.000000    0.000000
      3          9           0        0.850000    0.000000    0.000000
 ---------------------------------------------------------------------

 SCF Done:  E(UB3LYP) =  -100.965207979     a.u. after    6 cycles

 Alpha  occ. eigenvalues --  -24.63538  -1.20699  -0.55227  -0.39881  -0.39881
 Alpha  occ. eigenvalues --   -0.36144
 Alpha virt. eigenvalues --    0.09123   0.23211   0.40792   0.94524   0.94524
 Alpha virt. eigenvalues --    0.97738   1.16803   1.20487   1.20487   1.39418
 Alpha virt. eigenvalues --    1.39418   1.53621   1.99565   2.21886   2.49204

  Beta  occ. eigenvalues --  -24.63453  -1.20477  -0.54723  -0.39810  -0.39810
  Beta virt. eigenvalues --   -0.12428   0.11000   0.32332   0.42413   0.94553
  Beta virt. eigenvalues --    0.94553   0.98020   1.26111   1.35321   1.35321
  Beta virt. eigenvalues --    1.43521   1.43521   1.60238   2.07858   2.32299

 Mulliken charges and spin densities:
               1          2
     1  H    0.266887   0.009536
     2  H    0.016885   0.970548
     3  F   -0.283772   0.019915
 Sum of Mulliken charges =   0.00000   1.00000

 Dipole moment (field-independent basis, Debye):
    X=             -1.9668    Y=             -0.0000    Z=              0.0000  Tot=              1.9668
 Quadrupole moment (field-independent basis, Debye-Ang):
   XX=             -7.3699   YY=             -6.7587   ZZ=             -6.7587
   XY=             -0.0000   XZ=              0.0000   YZ=             -0.0000

  Exact polarizability:       8.766      -0.000       2.510      -0.000      -0.000       2.510
 Approx polarizability:       8.970       0.000       2.505      -0.000      -0.000       2.505

 ******    2 imaginary frequencies (negative Signs) ******

                      1                      2                      3
                      A                      A                      A
 Frequencies --  -1316.6613             -1316.6613               379.2807
 Red. masses --      1.0290                 1.0290                 1.0530
 Frc consts  --      1.0510                 1.0510                 0.0892
 IR Inten    --    143.8264               143.8264                 0.4253

                      4
                      A
 Frequencies --   5277.4881
 Red. masses --      1.0585
 Frc consts  --     17.3705
 IR Inten    --    185.4480

 - Thermochemistry -
 -------------------
 Temperature   298.150 Kelvin.  Pressure   1.00000 Atm.
 Atom     1 has atomic number  1 and mass   1.00783

 Molecular mass:    21.01405 amu.
 Principal axes and moments of inertia in atomic units:
                           1         2         3
     Eigenvalues --     0.00000  25.75989  25.75989
           X            1.00000  -0.00000   0.00000
           Y            0.00000   1.00000   0.00000
           Z            0.00000   0.00000   1.00000
 This molecule is a prolate symmetric top.
 Rotational symmetry number  1.
 Rotational temperature (Kelvin)      3.36236
 Rotational constant (GHZ):          70.060138
    2 imaginary frequencies ignored.
 Zero-point vibrational energy      33835.0 (Joules/Mol)
                                    8.08676 (Kcal/Mol)
 Warning -- explicit consideration of   1 degrees of freedom as
           vibrations may cause significant error
 Vibrational temperatures:    545.70  7593.13
          (Kelvin)

 Zero-point correction=                           0.012887 (Hartree/Particle)
 Thermal correction to Energy=                    0.015578
 Thermal correction to Enthalpy=                  0.016522
 Thermal correction to Gibbs Free Energy=        -0.006469
 Sum of electronic and zero-point Energies=           -100.952321
 Sum of electronic and thermal Energies=              -100.949630
 Sum of electronic and thermal Enthalpies=            -100.948686
 Sum of electronic and thermal Free Energies=         -100.971677

                     E (Thermal)             CV                S
                      KCal/Mol        Cal/Mol-Kelvin    Cal/Mol-Kelvin
 Total                    9.775              6.482             48.387
 Electronic               0.000              0.000              1.377
 Translational            0.889              2.981             35.068
 Rotational               0.592              1.987             10.900
 Vibrational              8.294              1.514              1.042
 Vibration     1          0.749              1.514              1.042

 Normal termination of Gaussian 16 at Fri Aug 22 15:53:19 2025.
