 Gaussian 16, Revision C.01,
 Gaussian 16:  ES64L-G16RevC.01  3-Jul-2019

 -----------------------------------------
 # sp b3lyp/6-311g** Force nosymm scf=(qc)
 -----------------------------------------

 -------------------
 Title Card Required
 -------------------
 Symbolic Z-matrix:
 Charge =  0 Multiplicity = 2

                          Input orientation:
 ---------------------------------------------------------------------
 Center     Atomic      Atomic             Coordinates (Angstroms)
 Number     Number       Type             X           Y           Z
 ---------------------------------------------------------------------
      1          1           0        0.000000    0.000000    0.000000
      2          1           0       -2.500000    0.000000    0.000000
      3          9           0        3.500000    0.000000    0.000000
 ---------------------------------------------------------------------

 SCF Done:  E(UB3LYP) =  -100.762967300     a.u. after   29 cycles

 Alpha  occ. eigenvalues --  -24.75450  -1.21408  -0.54572  -0.45821  -0.45821
 Alpha  occ. eigenvalues --   -0.32677
 Alpha virt. eigenvalues --   -0.09540   0.25678   0.34299   0.87606   0.91438
 Alpha virt. eigenvalues --    0.91438   1.01780   1.24975   1.24975   1.26550
 Alpha virt. eigenvalues --    1.41297   1.41297   1.42914   2.15744   2.36810

  Beta  occ. eigenvalues --  -24.72333  -1.12452  -0.42697  -0.42697  -0.32977
  Beta virt. eigenvalues --   -0.25530  -0.09055   0.25488   0.35010   0.92928
  Beta virt. eigenvalues --    0.92928   0.96776   1.05821   1.24617   1.24617
  Beta virt. eigenvalues --    1.26120   1.42046   1.42046   1.43661   2.16258

 Mulliken charges and spin densities:
               1          2
     1  H    0.008318  -0.958033
     2  H    0.002292   0.969936
     3  F   -0.010610   0.988097
 Sum of Mulliken charges =  -0.00000   1.00000

 Dipole moment (field-independent basis, Debye):
    X=             -0.2180    Y=             -0.0000    Z=             -0.0000  Tot=              0.2180
 Quadrupole moment (field-independent basis, Debye-Ang):
   XX=             -7.1066   YY=             -7.6651   ZZ=             -7.6651
   XY=              0.0000   XZ=              0.0000   YZ=             -0.0000

  Exact polarizability:      33.155       0.000       2.025       0.000      -0.000       2.025
 Approx polarizability:      24.986       0.000       1.929       0.000       0.000       1.929

 ******    2 imaginary frequencies (negative Signs) ******

                      1                      2                      3
                      A                      A                      A
 Frequencies --   -670.3676              -139.2253               245.6641
 Red. masses --      1.0080                 1.1082                 1.0144
 Frc consts  --      0.2669                 0.0127                 0.0361
 IR Inten    --      6.0217                 6.1237                 0.0449

                      4
                      A
 Frequencies --    245.6641
 Red. masses --      1.0144
 Frc consts  --      0.0361
 IR Inten    --      0.0449

 - Thermochemistry -
 -------------------
 Temperature   298.150 Kelvin.  Pressure   1.00000 Atm.
 Atom     1 has atomic number  1 and mass   1.00783

 Molecular mass:    21.01405 amu.
 Principal axes and moments of inertia in atomic units:
                           1         2         3
     Eigenvalues --     0.00000 158.07439 158.07439
           X            1.00000  -0.00000   0.00000
           Y            0.00000   1.00000   0.00000
           Z            0.00000   0.00000   1.00000
 This molecule is a prolate symmetric top.
 Rotational symmetry number  1.
 Rotational temperature (Kelvin)      0.54793
 Rotational constant (GHZ):          11.417037
    2 imaginary frequencies ignored.
 Zero-point vibrational energy       2938.8 (Joules/Mol)
                                    0.70239 (Kcal/Mol)
 Warning -- explicit consideration of   2 degrees of freedom as
           vibrations may cause significant error
 Vibrational temperatures:    353.46   353.46
          (Kelvin)

 Zero-point correction=                           0.001119 (Hartree/Particle)
 Thermal correction to Energy=                    0.004465
 Thermal correction to Enthalpy=                  0.005409
 Thermal correction to Gibbs Free Energy=        -0.020473
 Sum of electronic and zero-point Energies=           -100.761848
 Sum of electronic and thermal Energies=              -100.758502
 Sum of electronic and thermal Enthalpies=            -100.757558
 Sum of electronic and thermal Free Energies=         -100.783440

                     E (Thermal)             CV                S
                      KCal/Mol        Cal/Mol-Kelvin    Cal/Mol-Kelvin
 Total                    2.802              8.508             54.473
 Electronic               0.000              0.000              1.377
 Translational            0.889              2.981             35.068
 Rotational               0.592              1.987             14.505
 Vibrational              1.321              3.540              3.523
 Vibration     1          0.660              1.770              1.761
 Vibration     2          0.660              1.770              1.761

 Normal termination of Gaussian 16 at Fri Aug 22 22:09:47 2025.
