 Gaussian 16, Revision C.01,
 Gaussian 16:  ES64L-G16RevC.01  3-Jul-2019

 -----------------------------------------
 # sp b3lyp/6-311g** Force nosymm scf=(qc)
 -----------------------------------------

 -------------------
 Title Card Required
 -------------------
 Symbolic Z-matrix:
 Charge =  0 Multiplicity = 2

                          Input orientation:
 ---------------------------------------------------------------------
 Center     Atomic      Atomic             Coordinates (Angstroms)
 Number     Number       Type             X           Y           Z
 ---------------------------------------------------------------------
      1          1           0        0.000000    0.000000    0.000000
      2          1           0       -0.500000    0.000000    0.000000
      3          9           0        1.100000    0.000000    0.000000
 ---------------------------------------------------------------------

 SCF Done:  E(UB3LYP) =  -100.827096162     a.u. after    7 cycles

 Alpha  occ. eigenvalues --  -24.68774  -1.20295  -0.66830  -0.42429  -0.42429
 Alpha  occ. eigenvalues --   -0.36989
 Alpha virt. eigenvalues --    0.13395   0.18644   0.65698   0.86812   0.86812
 Alpha virt. eigenvalues --    0.94004   1.14400   1.14400   1.52717   1.66876
 Alpha virt. eigenvalues --    1.83866   1.92233   1.92233   2.62376   3.78468

  Beta  occ. eigenvalues --  -24.66480  -1.14468  -0.58401  -0.40312  -0.40312
  Beta virt. eigenvalues --   -0.17587   0.14999   0.19195   0.69617   0.88449
  Beta virt. eigenvalues --    0.88449   0.98768   1.17626   1.17626   1.55354
  Beta virt. eigenvalues --    1.72653   1.85399   1.95259   1.95259   2.67749

 Mulliken charges and spin densities:
               1          2
     1  H    0.252270  -0.011472
     2  H   -0.061280   0.404920
     3  F   -0.190990   0.606552
 Sum of Mulliken charges =   0.00000   1.00000

 Dipole moment (field-independent basis, Debye):
    X=             -1.1719    Y=              0.0000    Z=              0.0000  Tot=              1.1719
 Quadrupole moment (field-independent basis, Debye-Ang):
   XX=             -7.1030   YY=             -6.3576   ZZ=             -6.3576
   XY=              0.0000   XZ=              0.0000   YZ=              0.0000

  Exact polarizability:      11.668      -0.000       2.406       0.000      -0.000       2.406
 Approx polarizability:      13.776      -0.000       2.477       0.000      -0.000       2.477

 ******    2 imaginary frequencies (negative Signs) ******

                      1                      2                      3
                      A                      A                      A
 Frequencies --  -5144.0287             -5144.0287              1798.4978
 Red. masses --      1.0112                 1.0112                 1.1085
 Frc consts  --     15.7647                15.7647                 2.1125
 IR Inten    --      6.2587                 6.2587                 1.8532

                      4
                      A
 Frequencies --   9670.0258
 Red. masses --      1.0078
 Frc consts  --     55.5261
 IR Inten    --    213.1668

 - Thermochemistry -
 -------------------
 Temperature   298.150 Kelvin.  Pressure   1.00000 Atm.
 Atom     1 has atomic number  1 and mass   1.00783

 Molecular mass:    21.01405 amu.
 Principal axes and moments of inertia in atomic units:
                           1         2         3
     Eigenvalues --     0.00000  12.30996  12.30996
           X            1.00000  -0.00000   0.00000
           Y            0.00000   1.00000   0.00000
           Z            0.00000   0.00000   1.00000
 This molecule is a prolate symmetric top.
 Rotational symmetry number  1.
 Rotational temperature (Kelvin)      7.03609
 Rotational constant (GHZ):         146.608237
    2 imaginary frequencies ignored.
 Zero-point vibrational energy      68597.0 (Joules/Mol)
                                   16.39508 (Kcal/Mol)
 Vibrational temperatures:   2587.64 13913.01
          (Kelvin)

 Zero-point correction=                           0.026127 (Hartree/Particle)
 Thermal correction to Energy=                    0.028489
 Thermal correction to Enthalpy=                  0.029433
 Thermal correction to Gibbs Free Energy=         0.007634
 Sum of electronic and zero-point Energies=           -100.800969
 Sum of electronic and thermal Energies=              -100.798607
 Sum of electronic and thermal Enthalpies=            -100.797663
 Sum of electronic and thermal Free Energies=         -100.819462

                     E (Thermal)             CV                S
                      KCal/Mol        Cal/Mol-Kelvin    Cal/Mol-Kelvin
 Total                   17.877              4.993             45.881
 Electronic               0.000              0.000              1.377
 Translational            0.889              2.981             35.068
 Rotational               0.592              1.987              9.432
 Vibrational             16.396              0.025              0.003

 Normal termination of Gaussian 16 at Fri Aug 22 16:04:16 2025.
