 Gaussian 16, Revision C.01,
 Gaussian 16:  ES64L-G16RevC.01  3-Jul-2019

 -----------------------------------------
 # sp b3lyp/6-311g** Force nosymm scf=(qc)
 -----------------------------------------

 -------------------
 Title Card Required
 -------------------
 Symbolic Z-matrix:
 Charge =  0 Multiplicity = 2

                          Input orientation:
 ---------------------------------------------------------------------
 Center     Atomic      Atomic             Coordinates (Angstroms)
 Number     Number       Type             X           Y           Z
 ---------------------------------------------------------------------
      1          1           0        0.000000    0.000000    0.000000
      2          1           0       -2.150000    0.000000    0.000000
      3          9           0        2.850000    0.000000    0.000000
 ---------------------------------------------------------------------

 SCF Done:  E(UB3LYP) =  -100.772194043     a.u. after   23 cycles

 Alpha  occ. eigenvalues --  -24.73648  -1.19733  -0.52763  -0.44302  -0.44302
 Alpha  occ. eigenvalues --   -0.33748
 Alpha virt. eigenvalues --   -0.11774   0.25372   0.32456   0.90100   0.92544
 Alpha virt. eigenvalues --    0.92544   1.04916   1.22253   1.24127   1.24127
 Alpha virt. eigenvalues --    1.37196   1.37196   1.44949   2.12810   2.35245

  Beta  occ. eigenvalues --  -24.70655  -1.11165  -0.41309  -0.41309  -0.34167
  Beta virt. eigenvalues --   -0.24574  -0.10761   0.26051   0.33170   0.93992
  Beta virt. eigenvalues --    0.93992   0.98621   1.08769   1.22041   1.23596
  Beta virt. eigenvalues --    1.23596   1.38842   1.38842   1.46247   2.13972

 Mulliken charges and spin densities:
               1          2
     1  H    0.031392  -0.862950
     2  H    0.014737   0.915077
     3  F   -0.046129   0.947873
 Sum of Mulliken charges =   0.00000   1.00000

 Dipole moment (field-independent basis, Debye):
    X=             -0.8250    Y=              0.0000    Z=              0.0000  Tot=              0.8250
 Quadrupole moment (field-independent basis, Debye-Ang):
   XX=             -7.8245   YY=             -7.6804   ZZ=             -7.6804
   XY=              0.0000   XZ=              0.0000   YZ=              0.0000

  Exact polarizability:      55.905       0.000       2.006       0.000       0.000       2.006
 Approx polarizability:      51.937       0.000       1.923       0.000       0.000       1.923

 ******    2 imaginary frequencies (negative Signs) ******

                      1                      2                      3
                      A                      A                      A
 Frequencies --  -1125.6287              -282.1237               439.0596
 Red. masses --      1.0085                 1.1077                 1.0149
 Frc consts  --      0.7528                 0.0519                 0.1153
 IR Inten    --     34.0289                33.6816                 0.5723

                      4
                      A
 Frequencies --    439.0596
 Red. masses --      1.0149
 Frc consts  --      0.1153
 IR Inten    --      0.5723

 - Thermochemistry -
 -------------------
 Temperature   298.150 Kelvin.  Pressure   1.00000 Atm.
 Atom     1 has atomic number  1 and mass   1.00783

 Molecular mass:    21.01405 amu.
 Principal axes and moments of inertia in atomic units:
                           1         2         3
     Eigenvalues --     0.00000 108.57169 108.57169
           X            1.00000  -0.00000   0.00000
           Y            0.00000   1.00000   0.00000
           Z            0.00000   0.00000   1.00000
 This molecule is a prolate symmetric top.
 Rotational symmetry number  1.
 Rotational temperature (Kelvin)      0.79776
 Rotational constant (GHZ):          16.622576
    2 imaginary frequencies ignored.
 Zero-point vibrational energy       5252.3 (Joules/Mol)
                                    1.25533 (Kcal/Mol)
 Warning -- explicit consideration of   2 degrees of freedom as
           vibrations may cause significant error
 Vibrational temperatures:    631.71   631.71
          (Kelvin)

 Zero-point correction=                           0.002001 (Hartree/Particle)
 Thermal correction to Energy=                    0.004907
 Thermal correction to Enthalpy=                  0.005852
 Thermal correction to Gibbs Free Energy=        -0.018790
 Sum of electronic and zero-point Energies=           -100.770194
 Sum of electronic and thermal Energies=              -100.767287
 Sum of electronic and thermal Enthalpies=            -100.766342
 Sum of electronic and thermal Free Energies=         -100.790984

                     E (Thermal)             CV                S
                      KCal/Mol        Cal/Mol-Kelvin    Cal/Mol-Kelvin
 Total                    3.079              7.738             51.863
 Electronic               0.000              0.000              1.377
 Translational            0.889              2.981             35.068
 Rotational               0.592              1.987             13.759
 Vibrational              1.598              2.770              1.659
 Vibration     1          0.799              1.385              0.830
 Vibration     2          0.799              1.385              0.830

 Normal termination of Gaussian 16 at Fri Aug 22 18:53:29 2025.
