 Gaussian 16, Revision C.01,
 Gaussian 16:  ES64L-G16RevC.01  3-Jul-2019

 -----------------------------------------
 # sp b3lyp/6-311g** Force nosymm scf=(qc)
 -----------------------------------------

 -------------------
 Title Card Required
 -------------------
 Symbolic Z-matrix:
 Charge =  0 Multiplicity = 2

                          Input orientation:
 ---------------------------------------------------------------------
 Center     Atomic      Atomic             Coordinates (Angstroms)
 Number     Number       Type             X           Y           Z
 ---------------------------------------------------------------------
      1          1           0        0.000000    0.000000    0.000000
      2          1           0       -0.800000    0.000000    0.000000
      3          9           0        3.250000    0.000000    0.000000
 ---------------------------------------------------------------------

 SCF Done:  E(UB3LYP) =  -100.932353788     a.u. after   48 cycles

 Alpha  occ. eigenvalues --  -24.76480  -1.22313  -0.55510  -0.46731  -0.46662
 Alpha  occ. eigenvalues --   -0.42097
 Alpha virt. eigenvalues --    0.04885   0.20169   0.44865   0.85925   0.90799
 Alpha virt. eigenvalues --    0.93440   1.03267   1.08355   1.08360   1.52496
 Alpha virt. eigenvalues --    1.79022   1.79027   2.05549   2.38383   3.05462

  Beta  occ. eigenvalues --  -24.73320  -1.13231  -0.43609  -0.43494  -0.42049
  Beta virt. eigenvalues --   -0.26141   0.04910   0.20187   0.44943   0.92299
  Beta virt. eigenvalues --    0.95079   0.95386   1.07161   1.08355   1.08360
  Beta virt. eigenvalues --    1.52507   1.79021   1.79027   2.05573   2.38387

 Mulliken charges and spin densities:
               1          2
     1  H   -0.003157  -0.000711
     2  H   -0.003149  -0.000063
     3  F    0.006306   1.000774
 Sum of Mulliken charges =   0.00000   1.00000

 Dipole moment (field-independent basis, Debye):
    X=              0.0695    Y=             -0.0000    Z=             -0.0000  Tot=              0.0695
 Quadrupole moment (field-independent basis, Debye-Ang):
   XX=             -6.1446   YY=             -6.8517   ZZ=             -6.3341
   XY=             -0.0000   XZ=             -0.0000   YZ=              0.3458

  Exact polarizability:       9.179       0.000       2.077      -0.000       0.185       2.354
 Approx polarizability:      10.746       0.000       2.174      -0.000       0.232       2.521

                      1                      2                      3
                      A                      A                      A
 Frequencies --     39.3479              1076.4992              1077.6403
 Red. masses --      1.1085                 1.0090                 1.0090
 Frc consts  --      0.0010                 0.6889                 0.6904
 IR Inten    --      0.2001                 0.0029                 0.0023

                      4
                      A
 Frequencies --   3694.8243
 Red. masses --      1.0078
 Frc consts  --      8.1063
 IR Inten    --      0.1786

 - Thermochemistry -
 -------------------
 Temperature   298.150 Kelvin.  Pressure   1.00000 Atm.
 Atom     1 has atomic number  1 and mass   1.00783

 Molecular mass:    21.01405 amu.
 Principal axes and moments of inertia in atomic units:
                           1         2         3
     Eigenvalues --     0.00000  87.84904  87.84904
           X            1.00000  -0.00000   0.00000
           Y            0.00000   1.00000   0.00000
           Z            0.00000   0.00000   1.00000
 This molecule is a prolate symmetric top.
 Rotational symmetry number  1.
 Rotational temperature (Kelvin)      0.98594
 Rotational constant (GHZ):          20.543664
 Zero-point vibrational energy      35219.9 (Joules/Mol)
                                    8.41776 (Kcal/Mol)
 Warning -- explicit consideration of   1 degrees of freedom as
           vibrations may cause significant error
 Vibrational temperatures:     56.61  1548.84  1550.48  5316.03
          (Kelvin)

 Zero-point correction=                           0.013415 (Hartree/Particle)
 Thermal correction to Energy=                    0.016687
 Thermal correction to Enthalpy=                  0.017631
 Thermal correction to Gibbs Free Energy=        -0.008602
 Sum of electronic and zero-point Energies=           -100.918939
 Sum of electronic and thermal Energies=              -100.915667
 Sum of electronic and thermal Enthalpies=            -100.914723
 Sum of electronic and thermal Free Energies=         -100.940955

                     E (Thermal)             CV                S
                      KCal/Mol        Cal/Mol-Kelvin    Cal/Mol-Kelvin
 Total                   10.471              7.550             55.212
 Electronic               0.000              0.000              1.377
 Translational            0.889              2.981             35.068
 Rotational               0.592              1.987             13.338
 Vibrational              8.990              2.582              5.429
 Vibration     1          0.594              1.981              5.292

 Normal termination of Gaussian 16 at Fri Aug 22 20:27:14 2025.
