 Gaussian 16, Revision C.01,
 Gaussian 16:  ES64L-G16RevC.01  3-Jul-2019

 -----------------------------------------
 # sp b3lyp/6-311g** Force nosymm scf=(qc)
 -----------------------------------------

 -------------------
 Title Card Required
 -------------------
 Symbolic Z-matrix:
 Charge =  0 Multiplicity = 2

                          Input orientation:
 ---------------------------------------------------------------------
 Center     Atomic      Atomic             Coordinates (Angstroms)
 Number     Number       Type             X           Y           Z
 ---------------------------------------------------------------------
      1          1           0        0.000000    0.000000    0.000000
      2          1           0       -2.350000    0.000000    0.000000
      3          9           0        3.200000    0.000000    0.000000
 ---------------------------------------------------------------------

 SCF Done:  E(UB3LYP) =  -100.765768449     a.u. after   25 cycles

 Alpha  occ. eigenvalues --  -24.74827  -1.20830  -0.53947  -0.45296  -0.45296
 Alpha  occ. eigenvalues --   -0.33016
 Alpha virt. eigenvalues --   -0.10492   0.25633   0.33385   0.88750   0.91824
 Alpha virt. eigenvalues --    0.91824   1.02859   1.24714   1.24714   1.25740
 Alpha virt. eigenvalues --    1.39624   1.39624   1.42801   2.14845   2.35882

  Beta  occ. eigenvalues --  -24.71752  -1.12003  -0.42215  -0.42215  -0.33425
  Beta virt. eigenvalues --   -0.25210  -0.09729   0.25625   0.34341   0.93301
  Beta virt. eigenvalues --    0.93301   0.97715   1.06824   1.24202   1.24202
  Beta virt. eigenvalues --    1.25118   1.40833   1.40833   1.43973   2.15835

 Mulliken charges and spin densities:
               1          2
     1  H    0.016815  -0.928320
     2  H    0.005665   0.953509
     3  F   -0.022481   0.974812
 Sum of Mulliken charges =   0.00000   1.00000

 Dipole moment (field-independent basis, Debye):
    X=             -0.4326    Y=             -0.0000    Z=             -0.0000  Tot=              0.4326
 Quadrupole moment (field-independent basis, Debye-Ang):
   XX=             -7.4460   YY=             -7.6741   ZZ=             -7.6741
   XY=             -0.0000   XZ=             -0.0000   YZ=              0.0000

  Exact polarizability:      44.991      -0.000       2.014      -0.000       0.000       2.014
 Approx polarizability:      36.727      -0.000       1.925      -0.000      -0.000       1.925

 ******    2 imaginary frequencies (negative Signs) ******

                      1                      2                      3
                      A                      A                      A
 Frequencies --   -838.7231              -194.7413               315.7212
 Red. masses --      1.0082                 1.1080                 1.0146
 Frc consts  --      0.4179                 0.0248                 0.0596
 IR Inten    --     14.9586                15.6264                 0.1857

                      4
                      A
 Frequencies --    315.7212
 Red. masses --      1.0146
 Frc consts  --      0.0596
 IR Inten    --      0.1857

 - Thermochemistry -
 -------------------
 Temperature   298.150 Kelvin.  Pressure   1.00000 Atm.
 Atom     1 has atomic number  1 and mass   1.00783

 Molecular mass:    21.01405 amu.
 Principal axes and moments of inertia in atomic units:
                           1         2         3
     Eigenvalues --     0.00000 134.49709 134.49709
           X            1.00000  -0.00000   0.00000
           Y            0.00000   1.00000   0.00000
           Z            0.00000   0.00000   1.00000
 This molecule is a prolate symmetric top.
 Rotational symmetry number  1.
 Rotational temperature (Kelvin)      0.64398
 Rotational constant (GHZ):          13.418440
    2 imaginary frequencies ignored.
 Zero-point vibrational energy       3776.9 (Joules/Mol)
                                    0.90269 (Kcal/Mol)
 Warning -- explicit consideration of   2 degrees of freedom as
           vibrations may cause significant error
 Vibrational temperatures:    454.25   454.25
          (Kelvin)

 Zero-point correction=                           0.001439 (Hartree/Particle)
 Thermal correction to Energy=                    0.004601
 Thermal correction to Enthalpy=                  0.005545
 Thermal correction to Gibbs Free Energy=        -0.019777
 Sum of electronic and zero-point Energies=           -100.764330
 Sum of electronic and thermal Energies=              -100.761168
 Sum of electronic and thermal Enthalpies=            -100.760224
 Sum of electronic and thermal Free Energies=         -100.785545

                     E (Thermal)             CV                S
                      KCal/Mol        Cal/Mol-Kelvin    Cal/Mol-Kelvin
 Total                    2.887              8.255             53.294
 Electronic               0.000              0.000              1.377
 Translational            0.889              2.981             35.068
 Rotational               0.592              1.987             14.184
 Vibrational              1.406              3.287              2.664
 Vibration     1          0.703              1.644              1.332
 Vibration     2          0.703              1.644              1.332

 Normal termination of Gaussian 16 at Fri Aug 22 20:23:34 2025.
