 Gaussian 16, Revision C.01,
 Gaussian 16:  ES64L-G16RevC.01  3-Jul-2019

 -----------------------------------------
 # sp b3lyp/6-311g** Force nosymm scf=(qc)
 -----------------------------------------

 -------------------
 Title Card Required
 -------------------
 Symbolic Z-matrix:
 Charge =  0 Multiplicity = 2

                          Input orientation:
 ---------------------------------------------------------------------
 Center     Atomic      Atomic             Coordinates (Angstroms)
 Number     Number       Type             X           Y           Z
 ---------------------------------------------------------------------
      1          1           0        0.000000    0.000000    0.000000
      2          1           0       -2.050000    0.000000    0.000000
      3          9           0        0.800000    0.000000    0.000000
 ---------------------------------------------------------------------

 SCF Done:  E(UB3LYP) =  -100.950401680     a.u. after    6 cycles

 Alpha  occ. eigenvalues --  -24.63496  -1.22899  -0.56221  -0.40493  -0.40493
 Alpha  occ. eigenvalues --   -0.35486
 Alpha virt. eigenvalues --    0.08443   0.24477   0.44413   0.94342   0.94342
 Alpha virt. eigenvalues --    0.96987   1.15386   1.21942   1.21942   1.40060
 Alpha virt. eigenvalues --    1.40060   1.51578   1.99467   2.18377   2.53797

  Beta  occ. eigenvalues --  -24.63457  -1.22796  -0.56024  -0.40462  -0.40462
  Beta virt. eigenvalues --   -0.10878   0.10160   0.35474   0.44556   0.94346
  Beta virt. eigenvalues --    0.94346   0.97310   1.25002   1.39204   1.39204
  Beta virt. eigenvalues --    1.42885   1.42885   1.60707   2.03053   2.39904

 Mulliken charges and spin densities:
               1          2
     1  H    0.262668   0.007852
     2  H    0.010776   0.982832
     3  F   -0.273444   0.009317
 Sum of Mulliken charges =   0.00000   1.00000

 Dipole moment (field-independent basis, Debye):
    X=             -1.8471    Y=              0.0000    Z=             -0.0000  Tot=              1.8471
 Quadrupole moment (field-independent basis, Debye-Ang):
   XX=             -7.2942   YY=             -6.7379   ZZ=             -6.7379
   XY=              0.0000   XZ=             -0.0000   YZ=              0.0000

  Exact polarizability:       7.440       0.000       2.496      -0.000      -0.000       2.496
 Approx polarizability:       7.587       0.000       2.486      -0.000      -0.000       2.486

 ******    2 imaginary frequencies (negative Signs) ******

                      1                      2                      3
                      A                      A                      A
 Frequencies --  -1948.6879             -1948.6879               260.8991
 Red. masses --      1.0321                 1.0321                 1.0532
 Frc consts  --      2.3091                 2.3091                 0.0422
 IR Inten    --    165.0273               165.0273                 0.5333

                      4
                      A
 Frequencies --   6339.0692
 Red. masses --      1.0583
 Frc consts  --     25.0570
 IR Inten    --    155.0876

 - Thermochemistry -
 -------------------
 Temperature   298.150 Kelvin.  Pressure   1.00000 Atm.
 Atom     1 has atomic number  1 and mass   1.00783

 Molecular mass:    21.01405 amu.
 Principal axes and moments of inertia in atomic units:
                           1         2         3
     Eigenvalues --     0.00000  29.23676  29.23676
           X            1.00000  -0.00000   0.00000
           Y            0.00000   1.00000   0.00000
           Z            0.00000   0.00000   1.00000
 This molecule is a prolate symmetric top.
 Rotational symmetry number  1.
 Rotational temperature (Kelvin)      2.96250
 Rotational constant (GHZ):          61.728502
    2 imaginary frequencies ignored.
 Zero-point vibrational energy      39476.6 (Joules/Mol)
                                    9.43513 (Kcal/Mol)
 Warning -- explicit consideration of   1 degrees of freedom as
           vibrations may cause significant error
 Vibrational temperatures:    375.38  9120.51
          (Kelvin)

 Zero-point correction=                           0.015036 (Hartree/Particle)
 Thermal correction to Energy=                    0.017868
 Thermal correction to Enthalpy=                  0.018812
 Thermal correction to Gibbs Free Energy=        -0.004590
 Sum of electronic and zero-point Energies=           -100.935366
 Sum of electronic and thermal Energies=              -100.932534
 Sum of electronic and thermal Enthalpies=            -100.931590
 Sum of electronic and thermal Free Energies=         -100.954991

                     E (Thermal)             CV                S
                      KCal/Mol        Cal/Mol-Kelvin    Cal/Mol-Kelvin
 Total                   11.212              6.712             49.253
 Electronic               0.000              0.000              1.377
 Translational            0.889              2.981             35.068
 Rotational               0.592              1.987             11.151
 Vibrational              9.731              1.744              1.656
 Vibration     1          0.669              1.744              1.656

 Normal termination of Gaussian 16 at Fri Aug 22 15:51:08 2025.
