 Gaussian 16, Revision C.01,
 Gaussian 16:  ES64L-G16RevC.01  3-Jul-2019

 -----------------------------------------
 # sp b3lyp/6-311g** Force nosymm scf=(qc)
 -----------------------------------------

 -------------------
 Title Card Required
 -------------------
 Symbolic Z-matrix:
 Charge =  0 Multiplicity = 2

                          Input orientation:
 ---------------------------------------------------------------------
 Center     Atomic      Atomic             Coordinates (Angstroms)
 Number     Number       Type             X           Y           Z
 ---------------------------------------------------------------------
      1          1           0        0.000000    0.000000    0.000000
      2          1           0       -3.200000    0.000000    0.000000
      3          9           0        2.000000    0.000000    0.000000
 ---------------------------------------------------------------------

 SCF Done:  E(UB3LYP) =  -100.787625709     a.u. after   17 cycles

 Alpha  occ. eigenvalues --  -24.68231  -1.14549  -0.47212  -0.39762  -0.39762
 Alpha  occ. eigenvalues --   -0.33706
 Alpha virt. eigenvalues --   -0.13706   0.22628   0.31871   0.89088   0.94858
 Alpha virt. eigenvalues --    0.94858   1.05833   1.23823   1.23823   1.24206
 Alpha virt. eigenvalues --    1.35398   1.35398   1.60452   2.14230   2.29577

  Beta  occ. eigenvalues --  -24.65859  -1.07919  -0.37918  -0.37424  -0.37424
  Beta virt. eigenvalues --   -0.20759  -0.07648   0.23050   0.37338   0.90585
  Beta virt. eigenvalues --    0.95495   0.95495   1.08241   1.22000   1.22000
  Beta virt. eigenvalues --    1.44455   1.45035   1.45035   1.53696   2.12369

 Mulliken charges and spin densities:
               1          2
     1  H    0.190042  -0.740905
     2  H    0.003442   0.994956
     3  F   -0.193483   0.745949
 Sum of Mulliken charges =   0.00000   1.00000

 Dipole moment (field-independent basis, Debye):
    X=             -1.9652    Y=              0.0000    Z=              0.0000  Tot=              1.9652
 Quadrupole moment (field-independent basis, Debye-Ang):
   XX=             -9.9204   YY=             -7.4947   ZZ=             -7.4947
   XY=              0.0000   XZ=              0.0000   YZ=              0.0000

  Exact polarizability:      27.696      -0.000       2.061      -0.000       0.000       2.061
 Approx polarizability:      38.557      -0.000       1.947      -0.000      -0.000       1.947

 ******    2 imaginary frequencies (negative Signs) ******

                      1                      2                      3
                      A                      A                      A
 Frequencies --  -1137.6048              -171.7560               479.8589
 Red. masses --      1.0558                 1.0558                 1.0245
 Frc consts  --      0.8050                 0.0184                 0.1390
 IR Inten    --    118.4059                 0.9879                33.1064

                      4
                      A
 Frequencies --    479.8589
 Red. masses --      1.0245
 Frc consts  --      0.1390
 IR Inten    --     33.1064

 - Thermochemistry -
 -------------------
 Temperature   298.150 Kelvin.  Pressure   1.00000 Atm.
 Atom     1 has atomic number  1 and mass   1.00783

 Molecular mass:    21.01405 amu.
 Principal axes and moments of inertia in atomic units:
                           1         2         3
     Eigenvalues --     0.00000 102.76528 102.76528
           X            1.00000  -0.00000   0.00000
           Y            0.00000   1.00000   0.00000
           Z            0.00000   0.00000   1.00000
 This molecule is a prolate symmetric top.
 Rotational symmetry number  1.
 Rotational temperature (Kelvin)      0.84283
 Rotational constant (GHZ):          17.561779
    2 imaginary frequencies ignored.
 Zero-point vibrational energy       5740.4 (Joules/Mol)
                                    1.37199 (Kcal/Mol)
 Warning -- explicit consideration of   2 degrees of freedom as
           vibrations may cause significant error
 Vibrational temperatures:    690.41   690.41
          (Kelvin)

 Zero-point correction=                           0.002186 (Hartree/Particle)
 Thermal correction to Energy=                    0.005026
 Thermal correction to Enthalpy=                  0.005970
 Thermal correction to Gibbs Free Energy=        -0.018507
 Sum of electronic and zero-point Energies=           -100.785439
 Sum of electronic and thermal Energies=              -100.782600
 Sum of electronic and thermal Enthalpies=            -100.781656
 Sum of electronic and thermal Free Energies=         -100.806133

                     E (Thermal)             CV                S
                      KCal/Mol        Cal/Mol-Kelvin    Cal/Mol-Kelvin
 Total                    3.154              7.557             51.516
 Electronic               0.000              0.000              1.377
 Translational            0.889              2.981             35.068
 Rotational               0.592              1.987             13.649
 Vibrational              1.672              2.589              1.421
 Vibration     1          0.836              1.295              0.710
 Vibration     2          0.836              1.295              0.710

 Normal termination of Gaussian 16 at Fri Aug 22 16:57:32 2025.
