 Gaussian 16, Revision C.01,
 Gaussian 16:  ES64L-G16RevC.01  3-Jul-2019

 -----------------------------------------
 # sp b3lyp/6-311g** Force nosymm scf=(qc)
 -----------------------------------------

 -------------------
 Title Card Required
 -------------------
 Symbolic Z-matrix:
 Charge =  0 Multiplicity = 2

                          Input orientation:
 ---------------------------------------------------------------------
 Center     Atomic      Atomic             Coordinates (Angstroms)
 Number     Number       Type             X           Y           Z
 ---------------------------------------------------------------------
      1          1           0        0.000000    0.000000    0.000000
      2          1           0       -2.900000    0.000000    0.000000
      3          9           0        0.800000    0.000000    0.000000
 ---------------------------------------------------------------------

 SCF Done:  E(UB3LYP) =  -100.950431885     a.u. after    6 cycles

 Alpha  occ. eigenvalues --  -24.63650  -1.23013  -0.56174  -0.40624  -0.40624
 Alpha  occ. eigenvalues --   -0.34085
 Alpha virt. eigenvalues --    0.05559   0.25402   0.45763   0.94230   0.94230
 Alpha virt. eigenvalues --    0.97002   1.21847   1.23448   1.23448   1.34275
 Alpha virt. eigenvalues --    1.39846   1.39846   2.03011   2.14696   2.53104

  Beta  occ. eigenvalues --  -24.63646  -1.23002  -0.56161  -0.40621  -0.40621
  Beta virt. eigenvalues --   -0.06962   0.06729   0.38785   0.46016   0.94230
  Beta virt. eigenvalues --    0.94230   0.96996   1.30383   1.39845   1.39845
  Beta virt. eigenvalues --    1.49597   1.49597   1.51145   2.03077   2.43749

 Mulliken charges and spin densities:
               1          2
     1  H    0.273028   0.001728
     2  H    0.002513   0.996512
     3  F   -0.275541   0.001760
 Sum of Mulliken charges =   0.00000   1.00000

 Dipole moment (field-independent basis, Debye):
    X=             -1.7692    Y=              0.0000    Z=              0.0000  Tot=              1.7692
 Quadrupole moment (field-independent basis, Debye-Ang):
   XX=             -7.4994   YY=             -6.7675   ZZ=             -6.7675
   XY=              0.0000   XZ=              0.0000   YZ=              0.0000

  Exact polarizability:       5.509      -0.000       2.456      -0.000       0.000       2.456
 Approx polarizability:       5.959       0.000       2.439      -0.000      -0.000       2.439

 ******    3 imaginary frequencies (negative Signs) ******

                      1                      2                      3
                      A                      A                      A
 Frequencies --  -1969.6581             -1969.6581               -40.5190
 Red. masses --      1.0375                 1.0375                 1.0532
 Frc consts  --      2.3715                 2.3715                 0.0010
 IR Inten    --    189.7530               189.7530                 0.1668

                      4
                      A
 Frequencies --   6348.8552
 Red. masses --      1.0583
 Frc consts  --     25.1339
 IR Inten    --    114.8627

 - Thermochemistry -
 -------------------
 Temperature   298.150 Kelvin.  Pressure   1.00000 Atm.
 Atom     1 has atomic number  1 and mass   1.00783

 Molecular mass:    21.01405 amu.
 Principal axes and moments of inertia in atomic units:
                           1         2         3
     Eigenvalues --     0.00000  48.07850  48.07850
           X            1.00000  -0.00000   0.00000
           Y            0.00000   1.00000   0.00000
           Z            0.00000   0.00000   1.00000
 This molecule is a prolate symmetric top.
 Rotational symmetry number  1.
 Rotational temperature (Kelvin)      1.80151
 Rotational constant (GHZ):          37.537384
    3 imaginary frequencies ignored.
 Zero-point vibrational energy      37974.6 (Joules/Mol)
                                    9.07614 (Kcal/Mol)
 Vibrational temperatures:   9134.59
          (Kelvin)

 Zero-point correction=                           0.014464 (Hartree/Particle)
 Thermal correction to Energy=                    0.016824
 Thermal correction to Enthalpy=                  0.017768
 Thermal correction to Gibbs Free Energy=        -0.005316
 Sum of electronic and zero-point Energies=           -100.935968
 Sum of electronic and thermal Energies=              -100.933608
 Sum of electronic and thermal Enthalpies=            -100.932663
 Sum of electronic and thermal Free Energies=         -100.955748

                     E (Thermal)             CV                S
                      KCal/Mol        Cal/Mol-Kelvin    Cal/Mol-Kelvin
 Total                   10.557              4.968             48.585
 Electronic               0.000              0.000              1.377
 Translational            0.889              2.981             35.068
 Rotational               0.592              1.987             12.140
 Vibrational              9.076              0.000              0.000

 Normal termination of Gaussian 16 at Fri Aug 22 15:51:41 2025.
