 Gaussian 16, Revision C.01,
 Gaussian 16:  ES64L-G16RevC.01  3-Jul-2019

 -----------------------------------------
 # sp b3lyp/6-311g** Force nosymm scf=(qc)
 -----------------------------------------

 -------------------
 Title Card Required
 -------------------
 Symbolic Z-matrix:
 Charge =  0 Multiplicity = 2

                          Input orientation:
 ---------------------------------------------------------------------
 Center     Atomic      Atomic             Coordinates (Angstroms)
 Number     Number       Type             X           Y           Z
 ---------------------------------------------------------------------
      1          1           0        0.000000    0.000000    0.000000
      2          1           0       -1.750000    0.000000    0.000000
      3          9           0        3.350000    0.000000    0.000000
 ---------------------------------------------------------------------

 SCF Done:  E(UB3LYP) =  -100.790531932     a.u. after   35 cycles

 Alpha  occ. eigenvalues --  -24.75538  -1.21492  -0.54663  -0.45904  -0.45904
 Alpha  occ. eigenvalues --   -0.33542
 Alpha virt. eigenvalues --   -0.11212   0.25504   0.30625   0.88119   0.91357
 Alpha virt. eigenvalues --    0.91357   1.02129   1.08129   1.23768   1.23768
 Alpha virt. eigenvalues --    1.37322   1.37322   1.64021   2.15366   2.40508

  Beta  occ. eigenvalues --  -24.72425  -1.12546  -0.42784  -0.42784  -0.33509
  Beta virt. eigenvalues --   -0.25668  -0.11036   0.25537   0.30986   0.92845
  Beta virt. eigenvalues --    0.92845   0.97202   1.06146   1.08220   1.23808
  Beta virt. eigenvalues --    1.23808   1.37506   1.37506   1.64232   2.15969

 Mulliken charges and spin densities:
               1          2
     1  H    0.000697  -0.665932
     2  H    0.010014   0.678822
     3  F   -0.010711   0.987111
 Sum of Mulliken charges =   0.00000   1.00000

 Dipole moment (field-independent basis, Debye):
    X=             -0.2660    Y=              0.0000    Z=              0.0000  Tot=              0.2660
 Quadrupole moment (field-independent basis, Debye-Ang):
   XX=             -6.3163   YY=             -7.7559   ZZ=             -7.7559
   XY=              0.0000   XZ=              0.0000   YZ=             -0.0000

  Exact polarizability:      48.347      -0.000       2.005      -0.000       0.000       2.005
 Approx polarizability:      51.937       0.000       1.966       0.000      -0.000       1.966

 ******    2 imaginary frequencies (negative Signs) ******

                      1                      2                      3
                      A                      A                      A
 Frequencies --  -1825.5471              -148.5824               831.0889
 Red. masses --      1.0078                 1.1085                 1.0120
 Frc consts  --      1.9789                 0.0144                 0.4118
 IR Inten    --     31.9160                 9.5623                 0.0093

                      4
                      A
 Frequencies --    831.0889
 Red. masses --      1.0120
 Frc consts  --      0.4118
 IR Inten    --      0.0093

 - Thermochemistry -
 -------------------
 Temperature   298.150 Kelvin.  Pressure   1.00000 Atm.
 Atom     1 has atomic number  1 and mass   1.00783

 Molecular mass:    21.01405 amu.
 Principal axes and moments of inertia in atomic units:
                           1         2         3
     Eigenvalues --     0.00000 121.67552 121.67552
           X            1.00000  -0.00000   0.00000
           Y            0.00000   1.00000   0.00000
           Z            0.00000   0.00000   1.00000
 This molecule is a prolate symmetric top.
 Rotational symmetry number  1.
 Rotational temperature (Kelvin)      0.71184
 Rotational constant (GHZ):          14.832410
    2 imaginary frequencies ignored.
 Zero-point vibrational energy       9942.0 (Joules/Mol)
                                    2.37620 (Kcal/Mol)
 Vibrational temperatures:   1195.75  1195.75
          (Kelvin)

 Zero-point correction=                           0.003787 (Hartree/Particle)
 Thermal correction to Energy=                    0.006287
 Thermal correction to Enthalpy=                  0.007231
 Thermal correction to Gibbs Free Energy=        -0.016904
 Sum of electronic and zero-point Energies=           -100.786745
 Sum of electronic and thermal Energies=              -100.784245
 Sum of electronic and thermal Enthalpies=            -100.783301
 Sum of electronic and thermal Free Energies=         -100.807436

                     E (Thermal)             CV                S
                      KCal/Mol        Cal/Mol-Kelvin    Cal/Mol-Kelvin
 Total                    3.945              6.170             50.797
 Electronic               0.000              0.000              1.377
 Translational            0.889              2.981             35.068
 Rotational               0.592              1.987             13.985
 Vibrational              2.464              1.202              0.367

 Normal termination of Gaussian 16 at Fri Aug 22 21:00:48 2025.
