 Gaussian 16, Revision C.01,
 Gaussian 16:  ES64L-G16RevC.01  3-Jul-2019

 -----------------------------------------
 # sp b3lyp/6-311g** Force nosymm scf=(qc)
 -----------------------------------------

 -------------------
 Title Card Required
 -------------------
 Symbolic Z-matrix:
 Charge =  0 Multiplicity = 2

                          Input orientation:
 ---------------------------------------------------------------------
 Center     Atomic      Atomic             Coordinates (Angstroms)
 Number     Number       Type             X           Y           Z
 ---------------------------------------------------------------------
      1          1           0        0.000000    0.000000    0.000000
      2          1           0       -3.150000    0.000000    0.000000
      3          9           0        2.950000    0.000000    0.000000
 ---------------------------------------------------------------------

 SCF Done:  E(UB3LYP) =  -100.761916505     a.u. after   20 cycles

 Alpha  occ. eigenvalues --  -24.73912  -1.19984  -0.53030  -0.44529  -0.44529
 Alpha  occ. eigenvalues --   -0.32686
 Alpha virt. eigenvalues --   -0.08872   0.24391   0.35430   0.89590   0.92380
 Alpha virt. eigenvalues --    0.92380   1.04223   1.24839   1.24839   1.25368
 Alpha virt. eigenvalues --    1.42849   1.42849   1.43285   2.15271   2.39059

  Beta  occ. eigenvalues --  -24.70897  -1.11348  -0.41512  -0.41512  -0.33877
  Beta virt. eigenvalues --   -0.24678  -0.07285   0.24431   0.37153   0.93837
  Beta virt. eigenvalues --    0.93837   0.98220   1.07945   1.23471   1.23471
  Beta virt. eigenvalues --    1.24357   1.44999   1.45179   1.45179   2.15536

 Mulliken charges and spin densities:
               1          2
     1  H    0.039538  -0.950137
     2  H    0.001191   0.995010
     3  F   -0.040729   0.955127
 Sum of Mulliken charges =  -0.00000   1.00000

 Dipole moment (field-independent basis, Debye):
    X=             -0.6348    Y=              0.0000    Z=              0.0000  Tot=              0.6348
 Quadrupole moment (field-independent basis, Debye-Ang):
   XX=             -8.3391   YY=             -7.6146   ZZ=             -7.6146
   XY=             -0.0000   XZ=             -0.0000   YZ=              0.0000

  Exact polarizability:      33.994      -0.000       2.023      -0.000      -0.000       2.023
 Approx polarizability:      34.591      -0.000       1.924      -0.000      -0.000       1.924

 ******    2 imaginary frequencies (negative Signs) ******

                      1                      2                      3
                      A                      A                      A
 Frequencies --   -429.4397              -167.9485               156.8384
 Red. masses --      1.0352                 1.0771                 1.0188
 Frc consts  --      0.1125                 0.0179                 0.0148
 IR Inten    --     40.6325                 2.9728                 1.4225

                      4
                      A
 Frequencies --    156.8384
 Red. masses --      1.0188
 Frc consts  --      0.0148
 IR Inten    --      1.4225

 - Thermochemistry -
 -------------------
 Temperature   298.150 Kelvin.  Pressure   1.00000 Atm.
 Atom     1 has atomic number  1 and mass   1.00783

 Molecular mass:    21.01405 amu.
 Principal axes and moments of inertia in atomic units:
                           1         2         3
     Eigenvalues --     0.00000 151.10254 151.10254
           X            1.00000  -0.00000   0.00000
           Y            0.00000   1.00000   0.00000
           Z            0.00000   0.00000   1.00000
 This molecule is a prolate symmetric top.
 Rotational symmetry number  1.
 Rotational temperature (Kelvin)      0.57321
 Rotational constant (GHZ):          11.943818
    2 imaginary frequencies ignored.
 Zero-point vibrational energy       1876.2 (Joules/Mol)
                                    0.44842 (Kcal/Mol)
 Warning -- explicit consideration of   2 degrees of freedom as
           vibrations may cause significant error
 Vibrational temperatures:    225.66   225.66
          (Kelvin)

 Zero-point correction=                           0.000715 (Hartree/Particle)
 Thermal correction to Energy=                    0.004338
 Thermal correction to Enthalpy=                  0.005282
 Thermal correction to Gibbs Free Energy=        -0.021342
 Sum of electronic and zero-point Energies=           -100.761202
 Sum of electronic and thermal Energies=              -100.757578
 Sum of electronic and thermal Enthalpies=            -100.756634
 Sum of electronic and thermal Free Energies=         -100.783259

                     E (Thermal)             CV                S
                      KCal/Mol        Cal/Mol-Kelvin    Cal/Mol-Kelvin
 Total                    2.722              8.758             56.036
 Electronic               0.000              0.000              1.377
 Translational            0.889              2.981             35.068
 Rotational               0.592              1.987             14.415
 Vibrational              1.241              3.790              5.175
 Vibration     1          0.621              1.895              2.588
 Vibration     2          0.621              1.895              2.588

 Normal termination of Gaussian 16 at Fri Aug 22 19:18:37 2025.
