 Gaussian 16, Revision C.01,
 Gaussian 16:  ES64L-G16RevC.01  3-Jul-2019

 -----------------------------------------
 # sp b3lyp/6-311g** Force nosymm scf=(qc)
 -----------------------------------------

 -------------------
 Title Card Required
 -------------------
 Symbolic Z-matrix:
 Charge =  0 Multiplicity = 2

                          Input orientation:
 ---------------------------------------------------------------------
 Center     Atomic      Atomic             Coordinates (Angstroms)
 Number     Number       Type             X           Y           Z
 ---------------------------------------------------------------------
      1          1           0        0.000000    0.000000    0.000000
      2          1           0       -2.000000    0.000000    0.000000
      3          9           0        0.800000    0.000000    0.000000
 ---------------------------------------------------------------------

 SCF Done:  E(UB3LYP) =  -100.950317313     a.u. after    6 cycles

 Alpha  occ. eigenvalues --  -24.63481  -1.22892  -0.56242  -0.40482  -0.40482
 Alpha  occ. eigenvalues --   -0.35587
 Alpha virt. eigenvalues --    0.08733   0.24275   0.44199   0.94348   0.94348
 Alpha virt. eigenvalues --    0.97078   1.15599   1.21773   1.21773   1.40125
 Alpha virt. eigenvalues --    1.40125   1.52474   1.99469   2.18813   2.54370

  Beta  occ. eigenvalues --  -24.63436  -1.22775  -0.56012  -0.40447  -0.40447
  Beta virt. eigenvalues --   -0.11098   0.10463   0.35005   0.44565   0.94355
  Beta virt. eigenvalues --    0.94355   0.97385   1.25137   1.38852   1.38852
  Beta virt. eigenvalues --    1.42965   1.42965   1.61186   2.03709   2.38838

 Mulliken charges and spin densities:
               1          2
     1  H    0.261600   0.008431
     2  H    0.011608   0.981242
     3  F   -0.273208   0.010327
 Sum of Mulliken charges =   0.00000   1.00000

 Dipole moment (field-independent basis, Debye):
    X=             -1.8525    Y=              0.0000    Z=              0.0000  Tot=              1.8525
 Quadrupole moment (field-independent basis, Debye-Ang):
   XX=             -7.2834   YY=             -6.7334   ZZ=             -6.7334
   XY=              0.0000   XZ=              0.0000   YZ=             -0.0000

  Exact polarizability:       7.565       0.000       2.499      -0.000       0.000       2.499
 Approx polarizability:       7.692      -0.000       2.491       0.000       0.000       2.491

 ******    2 imaginary frequencies (negative Signs) ******

                      1                      2                      3
                      A                      A                      A
 Frequencies --  -1947.7580             -1947.7580               288.2189
 Red. masses --      1.0317                 1.0317                 1.0532
 Frc consts  --      2.3060                 2.3060                 0.0515
 IR Inten    --    162.5584               162.5584                 0.4936

                      4
                      A
 Frequencies --   6337.3647
 Red. masses --      1.0583
 Frc consts  --     25.0436
 IR Inten    --    158.9892

 - Thermochemistry -
 -------------------
 Temperature   298.150 Kelvin.  Pressure   1.00000 Atm.
 Atom     1 has atomic number  1 and mass   1.00783

 Molecular mass:    21.01405 amu.
 Principal axes and moments of inertia in atomic units:
                           1         2         3
     Eigenvalues --     0.00000  28.28261  28.28261
           X            1.00000  -0.00000   0.00000
           Y            0.00000   1.00000   0.00000
           Z            0.00000   0.00000   1.00000
 This molecule is a prolate symmetric top.
 Rotational symmetry number  1.
 Rotational temperature (Kelvin)      3.06244
 Rotational constant (GHZ):          63.810992
    2 imaginary frequencies ignored.
 Zero-point vibrational energy      39629.8 (Joules/Mol)
                                    9.47175 (Kcal/Mol)
 Warning -- explicit consideration of   1 degrees of freedom as
           vibrations may cause significant error
 Vibrational temperatures:    414.68  9118.05
          (Kelvin)

 Zero-point correction=                           0.015094 (Hartree/Particle)
 Thermal correction to Energy=                    0.017890
 Thermal correction to Enthalpy=                  0.018834
 Thermal correction to Gibbs Free Energy=        -0.004455
 Sum of electronic and zero-point Energies=           -100.935223
 Sum of electronic and thermal Energies=              -100.932428
 Sum of electronic and thermal Enthalpies=            -100.931483
 Sum of electronic and thermal Free Energies=         -100.954772

                     E (Thermal)             CV                S
                      KCal/Mol        Cal/Mol-Kelvin    Cal/Mol-Kelvin
 Total                   11.226              6.664             49.015
 Electronic               0.000              0.000              1.377
 Translational            0.889              2.981             35.068
 Rotational               0.592              1.987             11.085
 Vibrational              9.745              1.696              1.484
 Vibration     1          0.685              1.696              1.484

 Normal termination of Gaussian 16 at Fri Aug 22 15:51:06 2025.
