 Gaussian 16, Revision C.01,
 Gaussian 16:  ES64L-G16RevC.01  3-Jul-2019

 -----------------------------------------
 # sp b3lyp/6-311g** Force nosymm scf=(qc)
 -----------------------------------------

 -------------------
 Title Card Required
 -------------------
 Symbolic Z-matrix:
 Charge =  0 Multiplicity = 2

                          Input orientation:
 ---------------------------------------------------------------------
 Center     Atomic      Atomic             Coordinates (Angstroms)
 Number     Number       Type             X           Y           Z
 ---------------------------------------------------------------------
      1          1           0        0.000000    0.000000    0.000000
      2          1           0       -0.850000    0.000000    0.000000
      3          9           0        0.850000    0.000000    0.000000
 ---------------------------------------------------------------------

 SCF Done:  E(UB3LYP) =  -100.920608899     a.u. after    6 cycles

 Alpha  occ. eigenvalues --  -24.65722  -1.24071  -0.63171  -0.41988  -0.41988
 Alpha  occ. eigenvalues --   -0.34278
 Alpha virt. eigenvalues --    0.15575   0.18217   0.61549   0.88166   0.88166
 Alpha virt. eigenvalues --    0.94956   1.08717   1.08717   1.45169   1.71340
 Alpha virt. eigenvalues --    1.71340   1.77796   2.14256   2.32938   3.67468

  Beta  occ. eigenvalues --  -24.64818  -1.21689  -0.58008  -0.41198  -0.41198
  Beta virt. eigenvalues --   -0.15706   0.17020   0.21624   0.67179   0.90143
  Beta virt. eigenvalues --    0.90143   0.96794   1.14090   1.14090   1.46745
  Beta virt. eigenvalues --    1.76594   1.76594   1.86981   2.16196   2.43558

 Mulliken charges and spin densities:
               1          2
     1  H    0.267434  -0.014712
     2  H   -0.027540   0.816212
     3  F   -0.239894   0.198500
 Sum of Mulliken charges =   0.00000   1.00000

 Dipole moment (field-independent basis, Debye):
    X=             -1.4523    Y=             -0.0000    Z=              0.0000  Tot=              1.4523
 Quadrupole moment (field-independent basis, Debye-Ang):
   XX=             -7.5317   YY=             -6.5379   ZZ=             -6.5379
   XY=             -0.0000   XZ=              0.0000   YZ=             -0.0000

  Exact polarizability:      11.042       0.000       2.569      -0.000      -0.000       2.569
 Approx polarizability:      11.995       0.000       2.626      -0.000      -0.000       2.626

 ******    2 imaginary frequencies (negative Signs) ******

                      1                      2                      3
                      A                      A                      A
 Frequencies --  -2162.4225             -2162.4225              2481.1243
 Red. masses --      1.0179                 1.0179                 1.0654
 Frc consts  --      2.8045                 2.8045                 3.8643
 IR Inten    --     76.1403                76.1403               114.8306

                      4
                      A
 Frequencies --   5105.6072
 Red. masses --      1.0463
 Frc consts  --     16.0695
 IR Inten    --     21.5822

 - Thermochemistry -
 -------------------
 Temperature   298.150 Kelvin.  Pressure   1.00000 Atm.
 Atom     1 has atomic number  1 and mass   1.00783

 Molecular mass:    21.01405 amu.
 Principal axes and moments of inertia in atomic units:
                           1         2         3
     Eigenvalues --     0.00000  11.87904  11.87904
           X            1.00000  -0.00000   0.00000
           Y            0.00000   1.00000   0.00000
           Z            0.00000   0.00000   1.00000
 This molecule is a prolate symmetric top.
 Rotational symmetry number  1.
 Rotational temperature (Kelvin)      7.29132
 Rotational constant (GHZ):         151.926495
    2 imaginary frequencies ignored.
 Zero-point vibrational energy      45378.7 (Joules/Mol)
                                   10.84578 (Kcal/Mol)
 Vibrational temperatures:   3569.78  7345.83
          (Kelvin)

 Zero-point correction=                           0.017284 (Hartree/Particle)
 Thermal correction to Energy=                    0.019644
 Thermal correction to Enthalpy=                  0.020589
 Thermal correction to Gibbs Free Energy=        -0.001176
 Sum of electronic and zero-point Energies=           -100.903325
 Sum of electronic and thermal Energies=              -100.900965
 Sum of electronic and thermal Enthalpies=            -100.900020
 Sum of electronic and thermal Free Energies=         -100.921785

                     E (Thermal)             CV                S
                      KCal/Mol        Cal/Mol-Kelvin    Cal/Mol-Kelvin
 Total                   12.327              4.970             45.807
 Electronic               0.000              0.000              1.377
 Translational            0.889              2.981             35.068
 Rotational               0.592              1.987              9.362
 Vibrational             10.846              0.002              0.000

 Normal termination of Gaussian 16 at Fri Aug 22 15:52:40 2025.
