 Gaussian 16, Revision C.01,
 Gaussian 16:  ES64L-G16RevC.01  3-Jul-2019

 -----------------------------------------
 # sp b3lyp/6-311g** Force nosymm scf=(qc)
 -----------------------------------------

 -------------------
 Title Card Required
 -------------------
 Symbolic Z-matrix:
 Charge =  0 Multiplicity = 2

                          Input orientation:
 ---------------------------------------------------------------------
 Center     Atomic      Atomic             Coordinates (Angstroms)
 Number     Number       Type             X           Y           Z
 ---------------------------------------------------------------------
      1          1           0        0.000000    0.000000    0.000000
      2          1           0       -1.450000    0.000000    0.000000
      3          9           0        2.700000    0.000000    0.000000
 ---------------------------------------------------------------------

 SCF Done:  E(UB3LYP) =  -100.829530894     a.u. after   20 cycles

 Alpha  occ. eigenvalues --  -24.74685  -1.20709  -0.53850  -0.45200  -0.45200
 Alpha  occ. eigenvalues --   -0.35374
 Alpha virt. eigenvalues --   -0.09814   0.23905   0.30959   0.89798   0.91831
 Alpha virt. eigenvalues --    0.91831   1.05327   1.09798   1.17751   1.17751
 Alpha virt. eigenvalues --    1.41959   1.41959   1.84866   2.22620   2.48406

  Beta  occ. eigenvalues --  -24.71644  -1.11995  -0.42157  -0.42157  -0.35058
  Beta virt. eigenvalues --   -0.25515  -0.09312   0.24420   0.31334   0.93282
  Beta virt. eigenvalues --    0.93282   0.97858   1.07381   1.12704   1.18115
  Beta virt. eigenvalues --    1.18115   1.42271   1.42271   1.85329   2.23276

 Mulliken charges and spin densities:
               1          2
     1  H    0.003325  -0.178236
     2  H    0.026857   0.215893
     3  F   -0.030182   0.962343
 Sum of Mulliken charges =  -0.00000   1.00000

 Dipole moment (field-independent basis, Debye):
    X=             -0.5982    Y=              0.0000    Z=             -0.0000  Tot=              0.5982
 Quadrupole moment (field-independent basis, Debye-Ang):
   XX=             -6.3325   YY=             -7.6802   ZZ=             -7.6802
   XY=             -0.0000   XZ=              0.0000   YZ=              0.0000

  Exact polarizability:      52.777      -0.000       2.084       0.000      -0.000       2.084
 Approx polarizability:      70.849      -0.000       2.048       0.000      -0.000       2.048

 ******    2 imaginary frequencies (negative Signs) ******

                      1                      2                      3
                      A                      A                      A
 Frequencies --  -1793.6080              -225.0246              1223.2831
 Red. masses --      1.0083                 1.1079                 1.0122
 Frc consts  --      1.9112                 0.0331                 0.8924
 IR Inten    --    549.4539                19.1822                 0.0071

                      4
                      A
 Frequencies --   1223.2831
 Red. masses --      1.0122
 Frc consts  --      0.8924
 IR Inten    --      0.0071

 - Thermochemistry -
 -------------------
 Temperature   298.150 Kelvin.  Pressure   1.00000 Atm.
 Atom     1 has atomic number  1 and mass   1.00783

 Molecular mass:    21.01405 amu.
 Principal axes and moments of inertia in atomic units:
                           1         2         3
     Eigenvalues --     0.00000  80.12155  80.12155
           X            1.00000  -0.00000   0.00000
           Y            0.00000   1.00000   0.00000
           Z            0.00000   0.00000   1.00000
 This molecule is a prolate symmetric top.
 Rotational symmetry number  1.
 Rotational temperature (Kelvin)      1.08103
 Rotational constant (GHZ):          22.525041
    2 imaginary frequencies ignored.
 Zero-point vibrational energy      14633.7 (Joules/Mol)
                                    3.49754 (Kcal/Mol)
 Vibrational temperatures:   1760.03  1760.03
          (Kelvin)

 Zero-point correction=                           0.005574 (Hartree/Particle)
 Thermal correction to Energy=                    0.007965
 Thermal correction to Enthalpy=                  0.008909
 Thermal correction to Gibbs Free Energy=        -0.014693
 Sum of electronic and zero-point Energies=           -100.823957
 Sum of electronic and thermal Energies=              -100.821566
 Sum of electronic and thermal Enthalpies=            -100.820622
 Sum of electronic and thermal Free Energies=         -100.844224

                     E (Thermal)             CV                S
                      KCal/Mol        Cal/Mol-Kelvin    Cal/Mol-Kelvin
 Total                    4.998              5.348             49.675
 Electronic               0.000              0.000              1.377
 Translational            0.889              2.981             35.068
 Rotational               0.592              1.987             13.155
 Vibrational              3.517              0.380              0.075

 Normal termination of Gaussian 16 at Fri Aug 22 18:24:43 2025.
