 Gaussian 16, Revision C.01,
 Gaussian 16:  ES64L-G16RevC.01  3-Jul-2019

 -----------------------------------------
 # sp b3lyp/6-311g** Force nosymm scf=(qc)
 -----------------------------------------

 -------------------
 Title Card Required
 -------------------
 Symbolic Z-matrix:
 Charge =  0 Multiplicity = 2

                          Input orientation:
 ---------------------------------------------------------------------
 Center     Atomic      Atomic             Coordinates (Angstroms)
 Number     Number       Type             X           Y           Z
 ---------------------------------------------------------------------
      1          1           0        0.000000    0.000000    0.000000
      2          1           0       -2.200000    0.000000    0.000000
      3          9           0        2.200000    0.000000    0.000000
 ---------------------------------------------------------------------

 SCF Done:  E(UB3LYP) =  -100.784648092     a.u. after   13 cycles

 Alpha  occ. eigenvalues --  -24.69690  -1.15989  -0.48757  -0.40971  -0.40971
 Alpha  occ. eigenvalues --   -0.35157
 Alpha virt. eigenvalues --   -0.13348   0.24474   0.31868   0.88885   0.94586
 Alpha virt. eigenvalues --    0.94586   1.06111   1.22664   1.22664   1.27335
 Alpha virt. eigenvalues --    1.35023   1.35023   1.50552   2.11917   2.30814

  Beta  occ. eigenvalues --  -24.67065  -1.08579  -0.38368  -0.38368  -0.36473
  Beta virt. eigenvalues --   -0.22125  -0.11081   0.26172   0.33083   0.93064
  Beta virt. eigenvalues --    0.95696   0.95696   1.08880   1.22231   1.22231
  Beta virt. eigenvalues --    1.38539   1.38539   1.39164   1.45493   2.12053

 Mulliken charges and spin densities:
               1          2
     1  H    0.113394  -0.758159
     2  H    0.027964   0.931108
     3  F   -0.141358   0.827051
 Sum of Mulliken charges =   0.00000   1.00000

 Dipole moment (field-independent basis, Debye):
    X=             -1.8560    Y=              0.0000    Z=             -0.0000  Tot=              1.8560
 Quadrupole moment (field-independent basis, Debye-Ang):
   XX=             -8.8574   YY=             -7.5877   ZZ=             -7.5877
   XY=             -0.0000   XZ=              0.0000   YZ=              0.0000

  Exact polarizability:      48.790       0.000       2.030      -0.000      -0.000       2.030
 Approx polarizability:      54.527       0.000       1.933      -0.000      -0.000       1.933

 ******    2 imaginary frequencies (negative Signs) ******

                      1                      2                      3
                      A                      A                      A
 Frequencies --  -1203.0375              -475.3418               494.0564
 Red. masses --      1.0190                 1.0953                 1.0179
 Frc consts  --      0.8689                 0.1458                 0.1464
 IR Inten    --     69.7618                40.4526                 9.1560

                      4
                      A
 Frequencies --    494.0564
 Red. masses --      1.0179
 Frc consts  --      0.1464
 IR Inten    --      9.1560

 - Thermochemistry -
 -------------------
 Temperature   298.150 Kelvin.  Pressure   1.00000 Atm.
 Atom     1 has atomic number  1 and mass   1.00783

 Molecular mass:    21.01405 amu.
 Principal axes and moments of inertia in atomic units:
                           1         2         3
     Eigenvalues --     0.00000  79.57725  79.57725
           X            1.00000  -0.00000   0.00000
           Y            0.00000   1.00000   0.00000
           Z            0.00000   0.00000   1.00000
 This molecule is a prolate symmetric top.
 Rotational symmetry number  1.
 Rotational temperature (Kelvin)      1.08843
 Rotational constant (GHZ):          22.679110
    2 imaginary frequencies ignored.
 Zero-point vibrational energy       5910.2 (Joules/Mol)
                                    1.41258 (Kcal/Mol)
 Warning -- explicit consideration of   2 degrees of freedom as
           vibrations may cause significant error
 Vibrational temperatures:    710.84   710.84
          (Kelvin)

 Zero-point correction=                           0.002251 (Hartree/Particle)
 Thermal correction to Energy=                    0.005069
 Thermal correction to Enthalpy=                  0.006013
 Thermal correction to Gibbs Free Energy=        -0.018187
 Sum of electronic and zero-point Energies=           -100.782397
 Sum of electronic and thermal Energies=              -100.779579
 Sum of electronic and thermal Enthalpies=            -100.778635
 Sum of electronic and thermal Free Energies=         -100.802835

                     E (Thermal)             CV                S
                      KCal/Mol        Cal/Mol-Kelvin    Cal/Mol-Kelvin
 Total                    3.181              7.494             50.933
 Electronic               0.000              0.000              1.377
 Translational            0.889              2.981             35.068
 Rotational               0.592              1.987             13.141
 Vibrational              1.699              2.526              1.346
 Vibration     1          0.850              1.263              0.673
 Vibration     2          0.850              1.263              0.673

 Normal termination of Gaussian 16 at Fri Aug 22 17:11:50 2025.
