 Gaussian 16, Revision C.01,
 Gaussian 16:  ES64L-G16RevC.01  3-Jul-2019

 -----------------------------------------
 # sp b3lyp/6-311g** Force nosymm scf=(qc)
 -----------------------------------------

 -------------------
 Title Card Required
 -------------------
 Symbolic Z-matrix:
 Charge =  0 Multiplicity = 2

                          Input orientation:
 ---------------------------------------------------------------------
 Center     Atomic      Atomic             Coordinates (Angstroms)
 Number     Number       Type             X           Y           Z
 ---------------------------------------------------------------------
      1          1           0        0.000000    0.000000    0.000000
      2          1           0       -2.600000    0.000000    0.000000
      3          9           0        1.450000    0.000000    0.000000
 ---------------------------------------------------------------------

 SCF Done:  E(UB3LYP) =  -100.866817793     a.u. after    8 cycles

 Alpha  occ. eigenvalues --  -24.64124  -1.09861  -0.43892  -0.36367  -0.36367
 Alpha  occ. eigenvalues --   -0.35400
 Alpha virt. eigenvalues --   -0.12530   0.22834   0.26863   0.93518   0.93518
 Alpha virt. eigenvalues --    1.03566   1.13070   1.22097   1.22097   1.24284
 Alpha virt. eigenvalues --    1.32392   1.32392   1.73700   2.13245   2.20919

  Beta  occ. eigenvalues --  -24.63981  -1.09488  -0.43450  -0.36233  -0.36233
  Beta virt. eigenvalues --   -0.14790  -0.07273   0.25290   0.36038   0.93474
  Beta virt. eigenvalues --    0.93474   1.03921   1.13576   1.31830   1.31830
  Beta virt. eigenvalues --    1.43059   1.43059   1.43706   1.73777   2.20020

 Mulliken charges and spin densities:
               1          2
     1  H    0.342968  -0.028669
     2  H    0.014028   0.983940
     3  F   -0.356997   0.044729
 Sum of Mulliken charges =   0.00000   1.00000

 Dipole moment (field-independent basis, Debye):
    X=             -2.7292    Y=             -0.0000    Z=              0.0000  Tot=              2.7292
 Quadrupole moment (field-independent basis, Debye-Ang):
   XX=             -9.2976   YY=             -7.2949   ZZ=             -7.2949
   XY=             -0.0000   XZ=              0.0000   YZ=             -0.0000

  Exact polarizability:      19.194      -0.000       2.223      -0.000       0.000       2.223
 Approx polarizability:      30.046       0.000       2.156       0.000       0.000       2.156

 ******    2 imaginary frequencies (negative Signs) ******

                      1                      2                      3
                      A                      A                      A
 Frequencies --  -1201.0058              -211.9965              1034.8423
 Red. masses --      1.0504                 1.0612                 1.0263
 Frc consts  --      0.8927                 0.0281                 0.6475
 IR Inten    --    111.9734                 1.9839               106.7619

                      4
                      A
 Frequencies --   1034.8423
 Red. masses --      1.0263
 Frc consts  --      0.6475
 IR Inten    --    106.7619

 - Thermochemistry -
 -------------------
 Temperature   298.150 Kelvin.  Pressure   1.00000 Atm.
 Atom     1 has atomic number  1 and mass   1.00783

 Molecular mass:    21.01405 amu.
 Principal axes and moments of inertia in atomic units:
                           1         2         3
     Eigenvalues --     0.00000  61.37829  61.37829
           X            1.00000  -0.00000   0.00000
           Y            0.00000   1.00000   0.00000
           Z            0.00000   0.00000   1.00000
 This molecule is a prolate symmetric top.
 Rotational symmetry number  1.
 Rotational temperature (Kelvin)      1.41115
 Rotational constant (GHZ):          29.403574
    2 imaginary frequencies ignored.
 Zero-point vibrational energy      12379.5 (Joules/Mol)
                                    2.95876 (Kcal/Mol)
 Vibrational temperatures:   1488.91  1488.91
          (Kelvin)

 Zero-point correction=                           0.004715 (Hartree/Particle)
 Thermal correction to Energy=                    0.007140
 Thermal correction to Enthalpy=                  0.008084
 Thermal correction to Gibbs Free Energy=        -0.015308
 Sum of electronic and zero-point Energies=           -100.862103
 Sum of electronic and thermal Energies=              -100.859678
 Sum of electronic and thermal Enthalpies=            -100.858734
 Sum of electronic and thermal Free Energies=         -100.882126

                     E (Thermal)             CV                S
                      KCal/Mol        Cal/Mol-Kelvin    Cal/Mol-Kelvin
 Total                    4.480              5.649             49.233
 Electronic               0.000              0.000              1.377
 Translational            0.889              2.981             35.068
 Rotational               0.592              1.987             12.625
 Vibrational              2.999              0.681              0.163

 Normal termination of Gaussian 16 at Fri Aug 22 16:23:15 2025.
