 Gaussian 16, Revision C.01,
 Gaussian 16:  ES64L-G16RevC.01  3-Jul-2019

 -----------------------------------------
 # sp b3lyp/6-311g** Force nosymm scf=(qc)
 -----------------------------------------

 -------------------
 Title Card Required
 -------------------
 Symbolic Z-matrix:
 Charge =  0 Multiplicity = 2

                          Input orientation:
 ---------------------------------------------------------------------
 Center     Atomic      Atomic             Coordinates (Angstroms)
 Number     Number       Type             X           Y           Z
 ---------------------------------------------------------------------
      1          1           0        0.000000    0.000000    0.000000
      2          1           0       -1.050000    0.000000    0.000000
      3          9           0        1.450000    0.000000    0.000000
 ---------------------------------------------------------------------

 SCF Done:  E(UB3LYP) =  -100.921928353     a.u. after    8 cycles

 Alpha  occ. eigenvalues --  -24.67977  -1.15243  -0.52529  -0.40106  -0.40106
 Alpha  occ. eigenvalues --   -0.40012
 Alpha virt. eigenvalues --    0.02782   0.19876   0.33799   0.90211   0.90211
 Alpha virt. eigenvalues --    0.99105   1.08017   1.08017   1.18423   1.60447
 Alpha virt. eigenvalues --    1.60447   1.62517   2.19463   2.30237   2.47050

  Beta  occ. eigenvalues --  -24.65876  -1.09561  -0.44305  -0.38084  -0.38084
  Beta virt. eigenvalues --   -0.23019   0.05437   0.21676   0.35975   0.91103
  Beta virt. eigenvalues --    0.91103   1.04203   1.11682   1.11682   1.22234
  Beta virt. eigenvalues --    1.62540   1.62540   1.66246   2.23081   2.34622

 Mulliken charges and spin densities:
               1          2
     1  H    0.183794  -0.109937
     2  H    0.053539   0.473439
     3  F   -0.237332   0.636498
 Sum of Mulliken charges =  -0.00000   1.00000

 Dipole moment (field-independent basis, Debye):
    X=             -1.9661    Y=              0.0000    Z=             -0.0000  Tot=              1.9661
 Quadrupole moment (field-independent basis, Debye-Ang):
   XX=             -7.4961   YY=             -7.0189   ZZ=             -7.0189
   XY=              0.0000   XZ=             -0.0000   YZ=             -0.0000

  Exact polarizability:      28.373      -0.000       2.397       0.000       0.000       2.397
 Approx polarizability:      41.613       0.000       2.383       0.000       0.000       2.383

 ******    1 imaginary frequencies (negative Signs) ******

                      1                      2                      3
                      A                      A                      A
 Frequencies --  -2148.6448               850.3540              1229.9907
 Red. masses --      1.0340                 1.0784                 1.0145
 Frc consts  --      2.8127                 0.4595                 0.9043
 IR Inten    --    911.2335                89.2158                 7.9046

                      4
                      A
 Frequencies --   1229.9907
 Red. masses --      1.0145
 Frc consts  --      0.9043
 IR Inten    --      7.9046

 - Thermochemistry -
 -------------------
 Temperature   298.150 Kelvin.  Pressure   1.00000 Atm.
 Atom     1 has atomic number  1 and mass   1.00783

 Molecular mass:    21.01405 amu.
 Principal axes and moments of inertia in atomic units:
                           1         2         3
     Eigenvalues --     0.00000  27.36762  27.36762
           X            1.00000  -0.00000   0.00000
           Y            0.00000   1.00000   0.00000
           Z            0.00000   0.00000   1.00000
 This molecule is a prolate symmetric top.
 Rotational symmetry number  1.
 Rotational temperature (Kelvin)      3.16483
 Rotational constant (GHZ):          65.944399
    1 imaginary frequencies ignored.
 Zero-point vibrational energy      19800.2 (Joules/Mol)
                                    4.73236 (Kcal/Mol)
 Vibrational temperatures:   1223.47  1769.68  1769.68
          (Kelvin)

 Zero-point correction=                           0.007541 (Hartree/Particle)
 Thermal correction to Energy=                    0.009997
 Thermal correction to Enthalpy=                  0.010941
 Thermal correction to Gibbs Free Energy=        -0.011727
 Sum of electronic and zero-point Energies=           -100.914387
 Sum of electronic and thermal Energies=              -100.911932
 Sum of electronic and thermal Enthalpies=            -100.910987
 Sum of electronic and thermal Free Energies=         -100.933655

                     E (Thermal)             CV                S
                      KCal/Mol        Cal/Mol-Kelvin    Cal/Mol-Kelvin
 Total                    6.273              5.911             47.709
 Electronic               0.000              0.000              1.377
 Translational            0.889              2.981             35.068
 Rotational               0.592              1.987             11.020
 Vibrational              4.792              0.943              0.243

 Normal termination of Gaussian 16 at Fri Aug 22 16:21:58 2025.
