 Gaussian 16, Revision C.01,
 Gaussian 16:  ES64L-G16RevC.01  3-Jul-2019

 -----------------------------------------
 # sp b3lyp/6-311g** Force nosymm scf=(qc)
 -----------------------------------------

 -------------------
 Title Card Required
 -------------------
 Symbolic Z-matrix:
 Charge =  0 Multiplicity = 2

                          Input orientation:
 ---------------------------------------------------------------------
 Center     Atomic      Atomic             Coordinates (Angstroms)
 Number     Number       Type             X           Y           Z
 ---------------------------------------------------------------------
      1          1           0        0.000000    0.000000    0.000000
      2          1           0       -2.100000    0.000000    0.000000
      3          9           0        2.200000    0.000000    0.000000
 ---------------------------------------------------------------------

 SCF Done:  E(UB3LYP) =  -100.787170301     a.u. after   13 cycles

 Alpha  occ. eigenvalues --  -24.69718  -1.16016  -0.48794  -0.40993  -0.40993
 Alpha  occ. eigenvalues --   -0.35447
 Alpha virt. eigenvalues --   -0.13359   0.24417   0.31761   0.88627   0.94573
 Alpha virt. eigenvalues --    0.94573   1.05723   1.22439   1.22439   1.26926
 Alpha virt. eigenvalues --    1.34614   1.34614   1.51320   2.11190   2.31621

  Beta  occ. eigenvalues --  -24.67088  -1.08594  -0.38385  -0.38385  -0.36416
  Beta virt. eigenvalues --   -0.22222  -0.11451   0.26355   0.32471   0.92839
  Beta virt. eigenvalues --    0.95691   0.95691   1.08690   1.22392   1.22392
  Beta virt. eigenvalues --    1.36478   1.37506   1.37506   1.48101   2.11609

 Mulliken charges and spin densities:
               1          2
     1  H    0.106884  -0.736310
     2  H    0.033217   0.908052
     3  F   -0.140101   0.828257
 Sum of Mulliken charges =   0.00000   1.00000

 Dipole moment (field-independent basis, Debye):
    X=             -1.8827    Y=             -0.0000    Z=              0.0000  Tot=              1.8827
 Quadrupole moment (field-independent basis, Debye-Ang):
   XX=             -8.7060   YY=             -7.5957   ZZ=             -7.5957
   XY=              0.0000   XZ=             -0.0000   YZ=              0.0000

  Exact polarizability:      51.635       0.000       2.030      -0.000       0.000       2.030
 Approx polarizability:      58.159      -0.000       1.937       0.000      -0.000       1.937

 ******    2 imaginary frequencies (negative Signs) ******

                      1                      2                      3
                      A                      A                      A
 Frequencies --  -1318.1113              -493.4064               540.0659
 Red. masses --      1.0155                 1.0994                 1.0174
 Frc consts  --      1.0395                 0.1577                 0.1748
 IR Inten    --     78.7084                45.1844                 7.5143

                      4
                      A
 Frequencies --    540.0659
 Red. masses --      1.0174
 Frc consts  --      0.1748
 IR Inten    --      7.5143

 - Thermochemistry -
 -------------------
 Temperature   298.150 Kelvin.  Pressure   1.00000 Atm.
 Atom     1 has atomic number  1 and mass   1.00783

 Molecular mass:    21.01405 amu.
 Principal axes and moments of inertia in atomic units:
                           1         2         3
     Eigenvalues --     0.00000  76.67223  76.67223
           X            1.00000  -0.00000   0.00000
           Y            0.00000   1.00000   0.00000
           Z            0.00000   0.00000   1.00000
 This molecule is a prolate symmetric top.
 Rotational symmetry number  1.
 Rotational temperature (Kelvin)      1.12966
 Rotational constant (GHZ):          23.538395
    2 imaginary frequencies ignored.
 Zero-point vibrational energy       6460.6 (Joules/Mol)
                                    1.54413 (Kcal/Mol)
 Warning -- explicit consideration of   2 degrees of freedom as
           vibrations may cause significant error
 Vibrational temperatures:    777.03   777.03
          (Kelvin)

 Zero-point correction=                           0.002461 (Hartree/Particle)
 Thermal correction to Energy=                    0.005213
 Thermal correction to Enthalpy=                  0.006158
 Thermal correction to Gibbs Free Energy=        -0.017904
 Sum of electronic and zero-point Energies=           -100.784710
 Sum of electronic and thermal Energies=              -100.781957
 Sum of electronic and thermal Enthalpies=            -100.781013
 Sum of electronic and thermal Free Energies=         -100.805075

                     E (Thermal)             CV                S
                      KCal/Mol        Cal/Mol-Kelvin    Cal/Mol-Kelvin
 Total                    3.271              7.291             50.643
 Electronic               0.000              0.000              1.377
 Translational            0.889              2.981             35.068
 Rotational               0.592              1.987             13.067
 Vibrational              1.790              2.323              1.130
 Vibration     1          0.895              1.161              0.565
 Vibration     2          0.895              1.161              0.565

 Normal termination of Gaussian 16 at Fri Aug 22 17:11:45 2025.
