 Gaussian 16, Revision C.01,
 Gaussian 16:  ES64L-G16RevC.01  3-Jul-2019

 -----------------------------------------
 # sp b3lyp/6-311g** Force nosymm scf=(qc)
 -----------------------------------------

 -------------------
 Title Card Required
 -------------------
 Symbolic Z-matrix:
 Charge =  0 Multiplicity = 2

                          Input orientation:
 ---------------------------------------------------------------------
 Center     Atomic      Atomic             Coordinates (Angstroms)
 Number     Number       Type             X           Y           Z
 ---------------------------------------------------------------------
      1          1           0        0.000000    0.000000    0.000000
      2          1           0       -2.400000    0.000000    0.000000
      3          9           0        0.950000    0.000000    0.000000
 ---------------------------------------------------------------------

 SCF Done:  E(UB3LYP) =  -100.971449737     a.u. after    6 cycles

 Alpha  occ. eigenvalues --  -24.63958  -1.17322  -0.52698  -0.39085  -0.39085
 Alpha  occ. eigenvalues --   -0.35108
 Alpha virt. eigenvalues --    0.03484   0.25103   0.36671   0.94341   0.94341
 Alpha virt. eigenvalues --    0.98010   1.18385   1.22440   1.22440   1.36611
 Alpha virt. eigenvalues --    1.36611   1.40770   1.96298   2.13519   2.35359

  Beta  occ. eigenvalues --  -24.63934  -1.17259  -0.52586  -0.39064  -0.39064
  Beta virt. eigenvalues --   -0.10134   0.05284   0.35775   0.37766   0.94344
  Beta virt. eigenvalues --    0.94344   0.98162   1.27925   1.36557   1.36557
  Beta virt. eigenvalues --    1.43717   1.43717   1.52594   1.96264   2.34451

 Mulliken charges and spin densities:
               1          2
     1  H    0.301829   0.003790
     2  H    0.007768   0.988815
     3  F   -0.309598   0.007395
 Sum of Mulliken charges =   0.00000   1.00000

 Dipole moment (field-independent basis, Debye):
    X=             -2.0536    Y=              0.0000    Z=             -0.0000  Tot=              2.0536
 Quadrupole moment (field-independent basis, Debye-Ang):
   XX=             -7.8027   YY=             -6.9054   ZZ=             -6.9054
   XY=              0.0000   XZ=             -0.0000   YZ=              0.0000

  Exact polarizability:       8.418       0.000       2.446      -0.000      -0.000       2.446
 Approx polarizability:       9.290      -0.000       2.427       0.000       0.000       2.427

 ******    1 imaginary frequencies (negative Signs) ******

                      1                      2                      3
                      A                      A                      A
 Frequencies --    -37.0533               655.7200               655.7200
 Red. masses --      1.0530                 1.0318                 1.0318
 Frc consts  --      0.0009                 0.2614                 0.2614
 IR Inten    --      1.0221               157.6694               157.6694

                      4
                      A
 Frequencies --   3666.9111
 Red. masses --      1.0586
 Frc consts  --      8.3864
 IR Inten    --    135.0040

 - Thermochemistry -
 -------------------
 Temperature   298.150 Kelvin.  Pressure   1.00000 Atm.
 Atom     1 has atomic number  1 and mass   1.00783

 Molecular mass:    21.01405 amu.
 Principal axes and moments of inertia in atomic units:
                           1         2         3
     Eigenvalues --     0.00000  40.44648  40.44648
           X            1.00000  -0.00000   0.00000
           Y            0.00000   1.00000   0.00000
           Z            0.00000   0.00000   1.00000
 This molecule is a prolate symmetric top.
 Rotational symmetry number  1.
 Rotational temperature (Kelvin)      2.14145
 Rotational constant (GHZ):          44.620480
    1 imaginary frequencies ignored.
 Zero-point vibrational energy      29777.2 (Joules/Mol)
                                    7.11691 (Kcal/Mol)
 Vibrational temperatures:    943.43   943.43  5275.87
          (Kelvin)

 Zero-point correction=                           0.011342 (Hartree/Particle)
 Thermal correction to Energy=                    0.013966
 Thermal correction to Enthalpy=                  0.014910
 Thermal correction to Gibbs Free Energy=        -0.008357
 Sum of electronic and zero-point Energies=           -100.960108
 Sum of electronic and thermal Energies=              -100.957484
 Sum of electronic and thermal Enthalpies=            -100.956540
 Sum of electronic and thermal Free Energies=         -100.979806

                     E (Thermal)             CV                S
                      KCal/Mol        Cal/Mol-Kelvin    Cal/Mol-Kelvin
 Total                    8.764              6.801             48.968
 Electronic               0.000              0.000              1.377
 Translational            0.889              2.981             35.068
 Rotational               0.592              1.987             11.796
 Vibrational              7.282              1.833              0.726

 Normal termination of Gaussian 16 at Fri Aug 22 15:58:25 2025.
