 Gaussian 16, Revision C.01,
 Gaussian 16:  ES64L-G16RevC.01  3-Jul-2019

 -----------------------------------------
 # sp b3lyp/6-311g** Force nosymm scf=(qc)
 -----------------------------------------

 -------------------
 Title Card Required
 -------------------
 Symbolic Z-matrix:
 Charge =  0 Multiplicity = 2

                          Input orientation:
 ---------------------------------------------------------------------
 Center     Atomic      Atomic             Coordinates (Angstroms)
 Number     Number       Type             X           Y           Z
 ---------------------------------------------------------------------
      1          1           0        0.000000    0.000000    0.000000
      2          1           0       -2.150000    0.000000    0.000000
      3          9           0        2.550000    0.000000    0.000000
 ---------------------------------------------------------------------

 SCF Done:  E(UB3LYP) =  -100.776133969     a.u. after   19 cycles

 Alpha  occ. eigenvalues --  -24.72099  -1.18282  -0.51203  -0.42997  -0.42997
 Alpha  occ. eigenvalues --   -0.34370
 Alpha virt. eigenvalues --   -0.12503   0.24997   0.32428   0.90229   0.93444
 Alpha virt. eigenvalues --    0.93444   1.06259   1.23498   1.23498   1.24085
 Alpha virt. eigenvalues --    1.36073   1.36073   1.44733   2.12169   2.33765

  Beta  occ. eigenvalues --  -24.69227  -1.10096  -0.40132  -0.40132  -0.35035
  Beta virt. eigenvalues --   -0.23667  -0.11041   0.26393   0.32957   0.94831
  Beta virt. eigenvalues --    0.94831   0.97576   1.09405   1.22832   1.22832
  Beta virt. eigenvalues --    1.26142   1.38482   1.38482   1.45636   2.12784

 Mulliken charges and spin densities:
               1          2
     1  H    0.058319  -0.825141
     2  H    0.021624   0.917017
     3  F   -0.079944   0.908124
 Sum of Mulliken charges =   0.00000   1.00000

 Dipole moment (field-independent basis, Debye):
    X=             -1.2617    Y=              0.0000    Z=              0.0000  Tot=              1.2617
 Quadrupole moment (field-independent basis, Debye-Ang):
   XX=             -8.3253   YY=             -7.6506   ZZ=             -7.6506
   XY=              0.0000   XZ=              0.0000   YZ=              0.0000

  Exact polarizability:      55.163      -0.000       2.008      -0.000       0.000       2.008
 Approx polarizability:      56.462      -0.000       1.922      -0.000       0.000       1.922

 ******    2 imaginary frequencies (negative Signs) ******

                      1                      2                      3
                      A                      A                      A
 Frequencies --  -1156.6599              -371.7967               457.3675
 Red. masses --      1.0101                 1.1058                 1.0160
 Frc consts  --      0.7962                 0.0901                 0.1252
 IR Inten    --     48.7629                44.8537                 2.1787

                      4
                      A
 Frequencies --    457.3675
 Red. masses --      1.0160
 Frc consts  --      0.1252
 IR Inten    --      2.1787

 - Thermochemistry -
 -------------------
 Temperature   298.150 Kelvin.  Pressure   1.00000 Atm.
 Atom     1 has atomic number  1 and mass   1.00783

 Molecular mass:    21.01405 amu.
 Principal axes and moments of inertia in atomic units:
                           1         2         3
     Eigenvalues --     0.00000  93.83200  93.83200
           X            1.00000  -0.00000   0.00000
           Y            0.00000   1.00000   0.00000
           Z            0.00000   0.00000   1.00000
 This molecule is a prolate symmetric top.
 Rotational symmetry number  1.
 Rotational temperature (Kelvin)      0.92307
 Rotational constant (GHZ):          19.233750
    2 imaginary frequencies ignored.
 Zero-point vibrational energy       5471.3 (Joules/Mol)
                                    1.30768 (Kcal/Mol)
 Warning -- explicit consideration of   2 degrees of freedom as
           vibrations may cause significant error
 Vibrational temperatures:    658.05   658.05
          (Kelvin)

 Zero-point correction=                           0.002084 (Hartree/Particle)
 Thermal correction to Energy=                    0.004960
 Thermal correction to Enthalpy=                  0.005904
 Thermal correction to Gibbs Free Energy=        -0.018547
 Sum of electronic and zero-point Energies=           -100.774050
 Sum of electronic and thermal Energies=              -100.771174
 Sum of electronic and thermal Enthalpies=            -100.770230
 Sum of electronic and thermal Free Energies=         -100.794681

                     E (Thermal)             CV                S
                      KCal/Mol        Cal/Mol-Kelvin    Cal/Mol-Kelvin
 Total                    3.112              7.657             51.462
 Electronic               0.000              0.000              1.377
 Translational            0.889              2.981             35.068
 Rotational               0.592              1.987             13.469
 Vibrational              1.631              2.689              1.548
 Vibration     1          0.815              1.345              0.774
 Vibration     2          0.815              1.345              0.774

 Normal termination of Gaussian 16 at Fri Aug 22 17:53:59 2025.
