 Gaussian 16, Revision C.01,
 Gaussian 16:  ES64L-G16RevC.01  3-Jul-2019

 -----------------------------------------
 # sp b3lyp/6-311g** Force nosymm scf=(qc)
 -----------------------------------------

 -------------------
 Title Card Required
 -------------------
 Symbolic Z-matrix:
 Charge =  0 Multiplicity = 2

                          Input orientation:
 ---------------------------------------------------------------------
 Center     Atomic      Atomic             Coordinates (Angstroms)
 Number     Number       Type             X           Y           Z
 ---------------------------------------------------------------------
      1          1           0        0.000000    0.000000    0.000000
      2          1           0       -2.300000    0.000000    0.000000
      3          9           0        2.700000    0.000000    0.000000
 ---------------------------------------------------------------------

 SCF Done:  E(UB3LYP) =  -100.770486198     a.u. after   21 cycles

 Alpha  occ. eigenvalues --  -24.72884  -1.19020  -0.51993  -0.43659  -0.43659
 Alpha  occ. eigenvalues --   -0.33770
 Alpha virt. eigenvalues --   -0.11802   0.25186   0.32867   0.90331   0.92996
 Alpha virt. eigenvalues --    0.92996   1.05813   1.23990   1.23990   1.25711
 Alpha virt. eigenvalues --    1.37560   1.37560   1.42179   2.13778   2.34401

  Beta  occ. eigenvalues --  -24.69947  -1.10630  -0.40725  -0.40725  -0.34587
  Beta virt. eigenvalues --   -0.24106  -0.10278   0.26053   0.33853   0.94421
  Beta virt. eigenvalues --    0.94421   0.98447   1.09424   1.23053   1.23053
  Beta virt. eigenvalues --    1.25755   1.40063   1.40063   1.43902   2.14531

 Mulliken charges and spin densities:
               1          2
     1  H    0.048944  -0.876471
     2  H    0.013464   0.947035
     3  F   -0.062409   0.929436
 Sum of Mulliken charges =  -0.00000   1.00000

 Dipole moment (field-independent basis, Debye):
    X=             -1.0098    Y=             -0.0000    Z=             -0.0000  Tot=              1.0098
 Quadrupole moment (field-independent basis, Debye-Ang):
   XX=             -8.2808   YY=             -7.6508   ZZ=             -7.6508
   XY=             -0.0000   XZ=             -0.0000   YZ=             -0.0000

  Exact polarizability:      50.937      -0.000       2.009      -0.000      -0.000       2.009
 Approx polarizability:      49.832      -0.000       1.919      -0.000       0.000       1.919

 ******    2 imaginary frequencies (negative Signs) ******

                      1                      2                      3
                      A                      A                      A
 Frequencies --   -942.8713              -319.1212               364.6931
 Red. masses --      1.0104                 1.1054                 1.0161
 Frc consts  --      0.5292                 0.0663                 0.0796
 IR Inten    --     35.3640                34.4533                 1.7099

                      4
                      A
 Frequencies --    364.6931
 Red. masses --      1.0161
 Frc consts  --      0.0796
 IR Inten    --      1.7099

 - Thermochemistry -
 -------------------
 Temperature   298.150 Kelvin.  Pressure   1.00000 Atm.
 Atom     1 has atomic number  1 and mass   1.00783

 Molecular mass:    21.01405 amu.
 Principal axes and moments of inertia in atomic units:
                           1         2         3
     Eigenvalues --     0.00000 105.97812 105.97812
           X            1.00000  -0.00000   0.00000
           Y            0.00000   1.00000   0.00000
           Z            0.00000   0.00000   1.00000
 This molecule is a prolate symmetric top.
 Rotational symmetry number  1.
 Rotational temperature (Kelvin)      0.81728
 Rotational constant (GHZ):          17.029375
    2 imaginary frequencies ignored.
 Zero-point vibrational energy       4362.7 (Joules/Mol)
                                    1.04271 (Kcal/Mol)
 Warning -- explicit consideration of   2 degrees of freedom as
           vibrations may cause significant error
 Vibrational temperatures:    524.71   524.71
          (Kelvin)

 Zero-point correction=                           0.001662 (Hartree/Particle)
 Thermal correction to Energy=                    0.004713
 Thermal correction to Enthalpy=                  0.005657
 Thermal correction to Gibbs Free Energy=        -0.019221
 Sum of electronic and zero-point Energies=           -100.768825
 Sum of electronic and thermal Energies=              -100.765773
 Sum of electronic and thermal Enthalpies=            -100.764829
 Sum of electronic and thermal Free Energies=         -100.789707

                     E (Thermal)             CV                S
                      KCal/Mol        Cal/Mol-Kelvin    Cal/Mol-Kelvin
 Total                    2.957              8.058             52.360
 Electronic               0.000              0.000              1.377
 Translational            0.889              2.981             35.068
 Rotational               0.592              1.987             13.710
 Vibrational              1.476              3.090              2.204
 Vibration     1          0.738              1.545              1.102
 Vibration     2          0.738              1.545              1.102

 Normal termination of Gaussian 16 at Fri Aug 22 18:25:43 2025.
