 Gaussian 16, Revision C.01,
 Gaussian 16:  ES64L-G16RevC.01  3-Jul-2019

 -----------------------------------------
 # sp b3lyp/6-311g** Force nosymm scf=(qc)
 -----------------------------------------

 -------------------
 Title Card Required
 -------------------
 Symbolic Z-matrix:
 Charge =  0 Multiplicity = 2

                          Input orientation:
 ---------------------------------------------------------------------
 Center     Atomic      Atomic             Coordinates (Angstroms)
 Number     Number       Type             X           Y           Z
 ---------------------------------------------------------------------
      1          1           0        0.000000    0.000000    0.000000
      2          1           0       -2.500000    0.000000    0.000000
      3          9           0        1.150000    0.000000    0.000000
 ---------------------------------------------------------------------

 SCF Done:  E(UB3LYP) =  -100.937988321     a.u. after    6 cycles

 Alpha  occ. eigenvalues --  -24.64135  -1.12861  -0.48598  -0.37637  -0.37637
 Alpha  occ. eigenvalues --   -0.35242
 Alpha virt. eigenvalues --   -0.03139   0.24708   0.29365   0.93509   0.93509
 Alpha virt. eigenvalues --    1.00268   1.20376   1.22296   1.22296   1.34334
 Alpha virt. eigenvalues --    1.35118   1.35118   1.76739   2.13359   2.31191

  Beta  occ. eigenvalues --  -24.64097  -1.12765  -0.48435  -0.37603  -0.37603
  Beta virt. eigenvalues --   -0.11054  -0.00843   0.29351   0.36594   0.93509
  Beta virt. eigenvalues --    0.93509   1.00360   1.28127   1.35038   1.35038
  Beta virt. eigenvalues --    1.43604   1.43604   1.46971   1.76990   2.30658

 Mulliken charges and spin densities:
               1          2
     1  H    0.341113   0.000592
     2  H    0.009502   0.987734
     3  F   -0.350615   0.011674
 Sum of Mulliken charges =  -0.00000   1.00000

 Dipole moment (field-independent basis, Debye):
    X=             -2.3440    Y=              0.0000    Z=             -0.0000  Tot=              2.3440
 Quadrupole moment (field-independent basis, Debye-Ang):
   XX=             -8.3967   YY=             -7.0829   ZZ=             -7.0829
   XY=              0.0000   XZ=             -0.0000   YZ=             -0.0000

  Exact polarizability:      11.627       0.000       2.370      -0.000       0.000       2.370
 Approx polarizability:      14.452       0.000       2.333       0.000       0.000       2.333

 ******    1 imaginary frequencies (negative Signs) ******

                      1                      2                      3
                      A                      A                      A
 Frequencies --   -157.0412              1183.2674              1183.2674
 Red. masses --      1.0503                 1.0294                 1.0294
 Frc consts  --      0.0153                 0.8492                 0.8492
 IR Inten    --      2.9934               136.3315               136.3315

                      4
                      A
 Frequencies --   1426.7928
 Red. masses --      1.0613
 Frc consts  --      1.2729
 IR Inten    --    122.1846

 - Thermochemistry -
 -------------------
 Temperature   298.150 Kelvin.  Pressure   1.00000 Atm.
 Atom     1 has atomic number  1 and mass   1.00783

 Molecular mass:    21.01405 amu.
 Principal axes and moments of inertia in atomic units:
                           1         2         3
     Eigenvalues --     0.00000  48.73062  48.73062
           X            1.00000  -0.00000   0.00000
           Y            0.00000   1.00000   0.00000
           Z            0.00000   0.00000   1.00000
 This molecule is a prolate symmetric top.
 Rotational symmetry number  1.
 Rotational temperature (Kelvin)      1.77740
 Rotational constant (GHZ):          37.035058
    1 imaginary frequencies ignored.
 Zero-point vibrational energy      22689.1 (Joules/Mol)
                                    5.42283 (Kcal/Mol)
 Vibrational temperatures:   1702.46  1702.46  2052.84
          (Kelvin)

 Zero-point correction=                           0.008642 (Hartree/Particle)
 Thermal correction to Energy=                    0.011045
 Thermal correction to Enthalpy=                  0.011989
 Thermal correction to Gibbs Free Energy=        -0.011158
 Sum of electronic and zero-point Energies=           -100.929346
 Sum of electronic and thermal Energies=              -100.926944
 Sum of electronic and thermal Enthalpies=            -100.925999
 Sum of electronic and thermal Free Energies=         -100.949146

                     E (Thermal)             CV                S
                      KCal/Mol        Cal/Mol-Kelvin    Cal/Mol-Kelvin
 Total                    6.931              5.497             48.717
 Electronic               0.000              0.000              1.377
 Translational            0.889              2.981             35.068
 Rotational               0.592              1.987             12.167
 Vibrational              5.449              0.529              0.105

 Normal termination of Gaussian 16 at Fri Aug 22 16:08:05 2025.
