 Gaussian 16, Revision C.01,
 Gaussian 16:  ES64L-G16RevC.01  3-Jul-2019

 -----------------------------------------
 # sp b3lyp/6-311g** Force nosymm scf=(qc)
 -----------------------------------------

 -------------------
 Title Card Required
 -------------------
 Symbolic Z-matrix:
 Charge =  0 Multiplicity = 2

                          Input orientation:
 ---------------------------------------------------------------------
 Center     Atomic      Atomic             Coordinates (Angstroms)
 Number     Number       Type             X           Y           Z
 ---------------------------------------------------------------------
      1          1           0        0.000000    0.000000    0.000000
      2          1           0       -3.900000    0.000000    0.000000
      3          9           0        1.450000    0.000000    0.000000
 ---------------------------------------------------------------------

 SCF Done:  E(UB3LYP) =  -100.865753682     a.u. after    8 cycles

 Alpha  occ. eigenvalues --  -24.64377  -1.09962  -0.43879  -0.36572  -0.36572
 Alpha  occ. eigenvalues --   -0.33636
 Alpha virt. eigenvalues --   -0.13272   0.20643   0.27195   0.93261   0.93261
 Alpha virt. eigenvalues --    1.03519   1.12060   1.23836   1.23872   1.23872
 Alpha virt. eigenvalues --    1.31874   1.31874   1.72187   2.12890   2.19997

  Beta  occ. eigenvalues --  -24.64369  -1.09942  -0.43862  -0.36565  -0.36565
  Beta virt. eigenvalues --   -0.13403  -0.06054   0.23406   0.38353   0.93258
  Beta virt. eigenvalues --    0.93258   1.03537   1.12068   1.31842   1.31842
  Beta virt. eigenvalues --    1.46585   1.46903   1.46903   1.72198   2.18931

 Mulliken charges and spin densities:
               1          2
     1  H    0.353773  -0.001699
     2  H    0.000652   0.999313
     3  F   -0.354426   0.002386
 Sum of Mulliken charges =   0.00000   1.00000

 Dipole moment (field-independent basis, Debye):
    X=             -2.5491    Y=             -0.0000    Z=             -0.0000  Tot=              2.5491
 Quadrupole moment (field-independent basis, Debye-Ang):
   XX=             -9.7819   YY=             -7.2930   ZZ=             -7.2930
   XY=             -0.0000   XZ=             -0.0000   YZ=              0.0000

  Exact polarizability:      13.682      -0.000       2.209      -0.000      -0.000       2.209
 Approx polarizability:      24.976       0.000       2.138      -0.000      -0.000       2.138

 ******    2 imaginary frequencies (negative Signs) ******

                      1                      2                      3
                      A                      A                      A
 Frequencies --  -1096.1084               -44.4908              1060.4240
 Red. masses --      1.0580                 1.0535                 1.0329
 Frc consts  --      0.7490                 0.0012                 0.6843
 IR Inten    --     42.0143                 0.0376               124.2029

                      4
                      A
 Frequencies --   1060.4240
 Red. masses --      1.0329
 Frc consts  --      0.6843
 IR Inten    --    124.2029

 - Thermochemistry -
 -------------------
 Temperature   298.150 Kelvin.  Pressure   1.00000 Atm.
 Atom     1 has atomic number  1 and mass   1.00783

 Molecular mass:    21.01405 amu.
 Principal axes and moments of inertia in atomic units:
                           1         2         3
     Eigenvalues --     0.00000 102.59819 102.59819
           X            1.00000  -0.00000   0.00000
           Y            0.00000   1.00000   0.00000
           Z            0.00000   0.00000   1.00000
 This molecule is a prolate symmetric top.
 Rotational symmetry number  1.
 Rotational temperature (Kelvin)      0.84421
 Rotational constant (GHZ):          17.590380
    2 imaginary frequencies ignored.
 Zero-point vibrational energy      12685.5 (Joules/Mol)
                                    3.03190 (Kcal/Mol)
 Vibrational temperatures:   1525.71  1525.71
          (Kelvin)

 Zero-point correction=                           0.004832 (Hartree/Particle)
 Thermal correction to Energy=                    0.007250
 Thermal correction to Enthalpy=                  0.008195
 Thermal correction to Gibbs Free Energy=        -0.015675
 Sum of electronic and zero-point Energies=           -100.860922
 Sum of electronic and thermal Energies=              -100.858503
 Sum of electronic and thermal Enthalpies=            -100.857559
 Sum of electronic and thermal Free Energies=         -100.881429

                     E (Thermal)             CV                S
                      KCal/Mol        Cal/Mol-Kelvin    Cal/Mol-Kelvin
 Total                    4.550              5.599             50.238
 Electronic               0.000              0.000              1.377
 Translational            0.889              2.981             35.068
 Rotational               0.592              1.987             13.646
 Vibrational              3.068              0.631              0.146

 Normal termination of Gaussian 16 at Fri Aug 22 16:24:08 2025.
