 Gaussian 16, Revision C.01,
 Gaussian 16:  ES64L-G16RevC.01  3-Jul-2019

 -----------------------------------------
 # sp b3lyp/6-311g** Force nosymm scf=(qc)
 -----------------------------------------

 -------------------
 Title Card Required
 -------------------
 Symbolic Z-matrix:
 Charge =  0 Multiplicity = 2

                          Input orientation:
 ---------------------------------------------------------------------
 Center     Atomic      Atomic             Coordinates (Angstroms)
 Number     Number       Type             X           Y           Z
 ---------------------------------------------------------------------
      1          1           0        0.000000    0.000000    0.000000
      2          1           0       -0.750000    0.000000    0.000000
      3          9           0        1.650000    0.000000    0.000000
 ---------------------------------------------------------------------

 SCF Done:  E(UB3LYP) =  -100.936650658     a.u. after    7 cycles

 Alpha  occ. eigenvalues --  -24.72568  -1.19171  -0.55150  -0.43939  -0.43696
 Alpha  occ. eigenvalues --   -0.43696
 Alpha virt. eigenvalues --    0.08285   0.20108   0.43000   0.89428   0.89428
 Alpha virt. eigenvalues --    0.96485   1.07843   1.07843   1.21963   1.69595
 Alpha virt. eigenvalues --    1.80995   1.80995   1.96618   2.42194   3.16270

  Beta  occ. eigenvalues --  -24.69757  -1.11325  -0.46538  -0.40932  -0.40932
  Beta virt. eigenvalues --   -0.24309   0.09448   0.20933   0.44516   0.90624
  Beta virt. eigenvalues --    0.90624   1.03345   1.09492   1.09492   1.25425
  Beta virt. eigenvalues --    1.72054   1.81896   1.81896   1.97582   2.43980

 Mulliken charges and spin densities:
               1          2
     1  H    0.078004  -0.042664
     2  H    0.026093   0.178182
     3  F   -0.104097   0.864482
 Sum of Mulliken charges =   0.00000   1.00000

 Dipole moment (field-independent basis, Debye):
    X=             -0.9129    Y=              0.0000    Z=             -0.0000  Tot=              0.9129
 Quadrupole moment (field-independent basis, Debye-Ang):
   XX=             -6.6186   YY=             -6.8370   ZZ=             -6.8370
   XY=              0.0000   XZ=             -0.0000   YZ=             -0.0000

  Exact polarizability:      20.280       0.000       2.228      -0.000      -0.000       2.228
 Approx polarizability:      25.006       0.000       2.272      -0.000      -0.000       2.272

 ******    3 imaginary frequencies (negative Signs) ******

                      1                      2                      3
                      A                      A                      A
 Frequencies --   -698.8830              -698.8830              -301.0965
 Red. masses --      1.0112                 1.0112                 1.1083
 Frc consts  --      0.2910                 0.2910                 0.0592
 IR Inten    --      0.0586                 0.0586                79.6914

                      4
                      A
 Frequencies --   4116.4021
 Red. masses --      1.0080
 Frc consts  --     10.0635
 IR Inten    --    597.5230

 - Thermochemistry -
 -------------------
 Temperature   298.150 Kelvin.  Pressure   1.00000 Atm.
 Atom     1 has atomic number  1 and mass   1.00783

 Molecular mass:    21.01405 amu.
 Principal axes and moments of inertia in atomic units:
                           1         2         3
     Eigenvalues --     0.00000  27.69741  27.69741
           X            1.00000  -0.00000   0.00000
           Y            0.00000   1.00000   0.00000
           Z            0.00000   0.00000   1.00000
 This molecule is a prolate symmetric top.
 Rotational symmetry number  1.
 Rotational temperature (Kelvin)      3.12715
 Rotational constant (GHZ):          65.159216
    3 imaginary frequencies ignored.
 Zero-point vibrational energy      24621.6 (Joules/Mol)
                                    5.88469 (Kcal/Mol)
 Vibrational temperatures:   5922.58
          (Kelvin)

 Zero-point correction=                           0.009378 (Hartree/Particle)
 Thermal correction to Energy=                    0.011738
 Thermal correction to Enthalpy=                  0.012683
 Thermal correction to Gibbs Free Energy=        -0.009881
 Sum of electronic and zero-point Energies=           -100.927273
 Sum of electronic and thermal Energies=              -100.924912
 Sum of electronic and thermal Enthalpies=            -100.923968
 Sum of electronic and thermal Free Energies=         -100.946532

                     E (Thermal)             CV                S
                      KCal/Mol        Cal/Mol-Kelvin    Cal/Mol-Kelvin
 Total                    7.366              4.968             47.489
 Electronic               0.000              0.000              1.377
 Translational            0.889              2.981             35.068
 Rotational               0.592              1.987             11.044
 Vibrational              5.885              0.000              0.000

 Normal termination of Gaussian 16 at Fri Aug 22 16:33:10 2025.
