 Gaussian 16, Revision C.01,
 Gaussian 16:  ES64L-G16RevC.01  3-Jul-2019

 -----------------------------------------
 # sp b3lyp/6-311g** Force nosymm scf=(qc)
 -----------------------------------------

 -------------------
 Title Card Required
 -------------------
 Symbolic Z-matrix:
 Charge =  0 Multiplicity = 2

                          Input orientation:
 ---------------------------------------------------------------------
 Center     Atomic      Atomic             Coordinates (Angstroms)
 Number     Number       Type             X           Y           Z
 ---------------------------------------------------------------------
      1          1           0        0.000000    0.000000    0.000000
      2          1           0       -1.250000    0.000000    0.000000
      3          9           0        3.250000    0.000000    0.000000
 ---------------------------------------------------------------------

 SCF Done:  E(UB3LYP) =  -100.863029763     a.u. after  183 cycles

 Alpha  occ. eigenvalues --  -24.76520  -1.22369  -0.55564  -0.46780  -0.46716
 Alpha  occ. eigenvalues --   -0.35715
 Alpha virt. eigenvalues --   -0.05035   0.23258   0.33470   0.85862   0.90737
 Alpha virt. eigenvalues --    0.92820   1.02216   1.14179   1.14184   1.18886
 Alpha virt. eigenvalues --    1.51935   1.51940   2.03549   2.30617   2.54340

  Beta  occ. eigenvalues --  -24.73361  -1.13288  -0.43616  -0.43549  -0.35709
  Beta virt. eigenvalues --   -0.26198  -0.05026   0.23273   0.33523   0.92236
  Beta virt. eigenvalues --    0.94382   0.95324   1.06230   1.14179   1.14183
  Beta virt. eigenvalues --    1.18898   1.51934   1.51939   2.03558   2.30620

 Mulliken charges and spin densities:
               1          2
     1  H   -0.000540  -0.000149
     2  H   -0.004504  -0.000479
     3  F    0.005044   1.000627
 Sum of Mulliken charges =   0.00000   1.00000

 Dipole moment (field-independent basis, Debye):
    X=              0.0734    Y=             -0.0000    Z=             -0.0000  Tot=              0.0734
 Quadrupole moment (field-independent basis, Debye-Ang):
   XX=             -6.2003   YY=             -7.3781   ZZ=             -6.8560
   XY=             -0.0000   XZ=             -0.0000   YZ=              0.3442

  Exact polarizability:      17.338      -0.000       2.169      -0.000       0.184       2.449
 Approx polarizability:      26.892      -0.000       2.214      -0.000       0.232       2.565

 ******    2 imaginary frequencies (negative Signs) ******

                      1                      2                      3
                      A                      A                      A
 Frequencies --   -788.8648               -13.4131              1432.8720
 Red. masses --      1.0078                 1.1085                 1.0104
 Frc consts  --      0.3695                 0.0001                 1.2222
 IR Inten    --      0.4250                 0.3119                 0.0015

                      4
                      A
 Frequencies --   1433.8014
 Red. masses --      1.0104
 Frc consts  --      1.2238
 IR Inten    --      0.0015

 - Thermochemistry -
 -------------------
 Temperature   298.150 Kelvin.  Pressure   1.00000 Atm.
 Atom     1 has atomic number  1 and mass   1.00783

 Molecular mass:    21.01405 amu.
 Principal axes and moments of inertia in atomic units:
                           1         2         3
     Eigenvalues --     0.00000 100.52725 100.52725
           X            1.00000  -0.00000   0.00000
           Y            0.00000   1.00000   0.00000
           Z            0.00000   0.00000   1.00000
 This molecule is a prolate symmetric top.
 Rotational symmetry number  1.
 Rotational temperature (Kelvin)      0.86160
 Rotational constant (GHZ):          17.952757
    2 imaginary frequencies ignored.
 Zero-point vibrational energy      17146.5 (Joules/Mol)
                                    4.09812 (Kcal/Mol)
 Vibrational temperatures:   2061.58  2062.92
          (Kelvin)

 Zero-point correction=                           0.006531 (Hartree/Particle)
 Thermal correction to Energy=                    0.008904
 Thermal correction to Enthalpy=                  0.009848
 Thermal correction to Gibbs Free Energy=        -0.013947
 Sum of electronic and zero-point Energies=           -100.856499
 Sum of electronic and thermal Energies=              -100.854126
 Sum of electronic and thermal Enthalpies=            -100.853181
 Sum of electronic and thermal Free Energies=         -100.876977

                     E (Thermal)             CV                S
                      KCal/Mol        Cal/Mol-Kelvin    Cal/Mol-Kelvin
 Total                    5.587              5.157             50.082
 Electronic               0.000              0.000              1.377
 Translational            0.889              2.981             35.068
 Rotational               0.592              1.987             13.606
 Vibrational              4.106              0.189              0.031

 Normal termination of Gaussian 16 at Fri Aug 22 20:29:42 2025.
