 Gaussian 16, Revision C.01,
 Gaussian 16:  ES64L-G16RevC.01  3-Jul-2019

 -----------------------------------------
 # sp b3lyp/6-311g** Force nosymm scf=(qc)
 -----------------------------------------

 -------------------
 Title Card Required
 -------------------
 Symbolic Z-matrix:
 Charge =  0 Multiplicity = 2

                          Input orientation:
 ---------------------------------------------------------------------
 Center     Atomic      Atomic             Coordinates (Angstroms)
 Number     Number       Type             X           Y           Z
 ---------------------------------------------------------------------
      1          1           0        0.000000    0.000000    0.000000
      2          1           0       -2.600000    0.000000    0.000000
      3          9           0        1.050000    0.000000    0.000000
 ---------------------------------------------------------------------

 SCF Done:  E(UB3LYP) =  -100.958659685     a.u. after    6 cycles

 Alpha  occ. eigenvalues --  -24.64129  -1.14782  -0.50565  -0.38333  -0.38333
 Alpha  occ. eigenvalues --   -0.34892
 Alpha virt. eigenvalues --   -0.00046   0.25002   0.32209   0.93906   0.93906
 Alpha virt. eigenvalues --    0.99091   1.20865   1.22653   1.22653   1.35335
 Alpha virt. eigenvalues --    1.35638   1.35638   1.85376   2.13844   2.33647

  Beta  occ. eigenvalues --  -24.64109  -1.14730  -0.50479  -0.38314  -0.38314
  Beta virt. eigenvalues --   -0.09791   0.01740   0.32212   0.37252   0.93908
  Beta virt. eigenvalues --    0.93908   0.99139   1.29563   1.35604   1.35604
  Beta virt. eigenvalues --    1.44573   1.44573   1.48414   1.85560   2.33331

 Mulliken charges and spin densities:
               1          2
     1  H    0.326530   0.002110
     2  H    0.006455   0.991402
     3  F   -0.332984   0.006488
 Sum of Mulliken charges =   0.00000   1.00000

 Dipole moment (field-independent basis, Debye):
    X=             -2.1789    Y=              0.0000    Z=             -0.0000  Tot=              2.1789
 Quadrupole moment (field-independent basis, Debye-Ang):
   XX=             -8.1546   YY=             -7.0014   ZZ=             -7.0014
   XY=              0.0000   XZ=             -0.0000   YZ=              0.0000

  Exact polarizability:       9.347       0.000       2.405      -0.000      -0.000       2.405
 Approx polarizability:      11.033       0.000       2.376      -0.000      -0.000       2.376

 ******    1 imaginary frequencies (negative Signs) ******

                      1                      2                      3
                      A                      A                      A
 Frequencies --   -107.3706              1103.0517              1103.0517
 Red. masses --      1.0527                 1.0315                 1.0315
 Frc consts  --      0.0072                 0.7395                 0.7395
 IR Inten    --      1.0631               150.6734               150.6734

                      4
                      A
 Frequencies --   2437.9380
 Red. masses --      1.0589
 Frc consts  --      3.7081
 IR Inten    --    116.1761

 - Thermochemistry -
 -------------------
 Temperature   298.150 Kelvin.  Pressure   1.00000 Atm.
 Atom     1 has atomic number  1 and mass   1.00783

 Molecular mass:    21.01405 amu.
 Principal axes and moments of inertia in atomic units:
                           1         2         3
     Eigenvalues --     0.00000  48.10281  48.10281
           X            1.00000  -0.00000   0.00000
           Y            0.00000   1.00000   0.00000
           Z            0.00000   0.00000   1.00000
 This molecule is a prolate symmetric top.
 Rotational symmetry number  1.
 Rotational temperature (Kelvin)      1.80060
 Rotational constant (GHZ):          37.518414
    1 imaginary frequencies ignored.
 Zero-point vibrational energy      27777.5 (Joules/Mol)
                                    6.63899 (Kcal/Mol)
 Vibrational temperatures:   1587.05  1587.05  3507.65
          (Kelvin)

 Zero-point correction=                           0.010580 (Hartree/Particle)
 Thermal correction to Energy=                    0.012990
 Thermal correction to Enthalpy=                  0.013934
 Thermal correction to Gibbs Free Energy=        -0.009210
 Sum of electronic and zero-point Energies=           -100.948080
 Sum of electronic and thermal Energies=              -100.945670
 Sum of electronic and thermal Enthalpies=            -100.944726
 Sum of electronic and thermal Free Energies=         -100.967869

                     E (Thermal)             CV                S
                      KCal/Mol        Cal/Mol-Kelvin    Cal/Mol-Kelvin
 Total                    8.151              5.525             48.710
 Electronic               0.000              0.000              1.377
 Translational            0.889              2.981             35.068
 Rotational               0.592              1.987             12.141
 Vibrational              6.670              0.557              0.123

 Normal termination of Gaussian 16 at Fri Aug 22 16:03:20 2025.
