 Gaussian 16, Revision C.01,
 Gaussian 16:  ES64L-G16RevC.01  3-Jul-2019

 -----------------------------------------
 # sp b3lyp/6-311g** Force nosymm scf=(qc)
 -----------------------------------------

 -------------------
 Title Card Required
 -------------------
 Symbolic Z-matrix:
 Charge =  0 Multiplicity = 2

                          Input orientation:
 ---------------------------------------------------------------------
 Center     Atomic      Atomic             Coordinates (Angstroms)
 Number     Number       Type             X           Y           Z
 ---------------------------------------------------------------------
      1          1           0        0.000000    0.000000    0.000000
      2          1           0       -4.000000    0.000000    0.000000
      3          9           0        3.850000    0.000000    0.000000
 ---------------------------------------------------------------------

 SCF Done:  E(UB3LYP) =  -100.758450776     a.u. after   29 cycles

 Alpha  occ. eigenvalues --  -24.75788  -1.21721  -0.54912  -0.46105  -0.46105
 Alpha  occ. eigenvalues --   -0.32236
 Alpha virt. eigenvalues --   -0.05797   0.24194   0.37847   0.86765   0.91229
 Alpha virt. eigenvalues --    0.91229   1.01209   1.25258   1.25258   1.25279
 Alpha virt. eigenvalues --    1.46799   1.46799   1.47621   2.14579   2.42793

  Beta  occ. eigenvalues --  -24.72648  -1.12694  -0.42957  -0.42957  -0.32499
  Beta virt. eigenvalues --   -0.25685  -0.05784   0.23983   0.38220   0.92727
  Beta virt. eigenvalues --    0.92727   0.96092   1.05314   1.24970   1.24970
  Beta virt. eigenvalues --    1.24975   1.46747   1.46824   1.46824   2.14578

 Mulliken charges and spin densities:
               1          2
     1  H    0.004038  -0.994881
     2  H    0.000022   0.999371
     3  F   -0.004060   0.995509
 Sum of Mulliken charges =  -0.00000   1.00000

 Dipole moment (field-independent basis, Debye):
    X=             -0.0812    Y=              0.0000    Z=             -0.0000  Tot=              0.0812
 Quadrupole moment (field-independent basis, Debye-Ang):
   XX=             -7.0297   YY=             -7.6187   ZZ=             -7.6187
   XY=              0.0000   XZ=             -0.0000   YZ=              0.0000

  Exact polarizability:      13.355       0.000       2.034      -0.000       0.000       2.034
 Approx polarizability:       9.827       0.000       1.937      -0.000      -0.000       1.937

 ******    2 imaginary frequencies (negative Signs) ******

                      1                      2                      3
                      A                      A                      A
 Frequencies --   -148.1279               -60.8100                44.9964
 Red. masses --      1.0314                 1.0813                 1.0184
 Frc consts  --      0.0133                 0.0024                 0.0012
 IR Inten    --      2.4363                 0.2105                 0.0161

                      4
                      A
 Frequencies --     44.9964
 Red. masses --      1.0184
 Frc consts  --      0.0012
 IR Inten    --      0.0161

 - Thermochemistry -
 -------------------
 Temperature   298.150 Kelvin.  Pressure   1.00000 Atm.
 Atom     1 has atomic number  1 and mass   1.00783

 Molecular mass:    21.01405 amu.
 Principal axes and moments of inertia in atomic units:
                           1         2         3
     Eigenvalues --     0.00000 251.49805 251.49805
           X            1.00000  -0.00000   0.00000
           Y            0.00000   1.00000   0.00000
           Z            0.00000   0.00000   1.00000
 This molecule is a prolate symmetric top.
 Rotational symmetry number  1.
 Rotational temperature (Kelvin)      0.34439
 Rotational constant (GHZ):           7.175965
    2 imaginary frequencies ignored.
 Zero-point vibrational energy        538.3 (Joules/Mol)
                                    0.12865 (Kcal/Mol)
 Warning -- explicit consideration of   2 degrees of freedom as
           vibrations may cause significant error
 Vibrational temperatures:     64.74    64.74
          (Kelvin)

 Zero-point correction=                           0.000205 (Hartree/Particle)
 Thermal correction to Energy=                    0.004256
 Thermal correction to Enthalpy=                  0.005200
 Thermal correction to Gibbs Free Energy=        -0.024222
 Sum of electronic and zero-point Energies=           -100.758246
 Sum of electronic and thermal Energies=              -100.754195
 Sum of electronic and thermal Enthalpies=            -100.753250
 Sum of electronic and thermal Free Energies=         -100.782673

                     E (Thermal)             CV                S
                      KCal/Mol        Cal/Mol-Kelvin    Cal/Mol-Kelvin
 Total                    2.671              8.927             61.925
 Electronic               0.000              0.000              1.377
 Translational            0.889              2.981             35.068
 Rotational               0.592              1.987             15.428
 Vibrational              1.190              3.959             10.052
 Vibration     1          0.595              1.979              5.026
 Vibration     2          0.595              1.979              5.026

 Normal termination of Gaussian 16 at Sat Aug 23 01:12:06 2025.
