 Gaussian 16, Revision C.01,
 Gaussian 16:  ES64L-G16RevC.01  3-Jul-2019

 -----------------------------------------
 # sp b3lyp/6-311g** Force nosymm scf=(qc)
 -----------------------------------------

 -------------------
 Title Card Required
 -------------------
 Symbolic Z-matrix:
 Charge =  0 Multiplicity = 2

                          Input orientation:
 ---------------------------------------------------------------------
 Center     Atomic      Atomic             Coordinates (Angstroms)
 Number     Number       Type             X           Y           Z
 ---------------------------------------------------------------------
      1          1           0        0.000000    0.000000    0.000000
      2          1           0       -0.900000    0.000000    0.000000
      3          9           0        3.550000    0.000000    0.000000
 ---------------------------------------------------------------------

 SCF Done:  E(UB3LYP) =  -100.922028736     a.u. after  199 cycles

 Alpha  occ. eigenvalues --  -24.76334  -1.22202  -0.55402  -0.46594  -0.46556
 Alpha  occ. eigenvalues --   -0.40387
 Alpha virt. eigenvalues --    0.02640   0.20768   0.41531   0.85998   0.90874
 Alpha virt. eigenvalues --    0.92433   1.01607   1.08398   1.08401   1.45453
 Alpha virt. eigenvalues --    1.72285   1.72289   2.17656   2.37484   2.74210

  Beta  occ. eigenvalues --  -24.73176  -1.13124  -0.43434  -0.43391  -0.40380
  Beta virt. eigenvalues --   -0.26043   0.02651   0.20776   0.41573   0.92374
  Beta virt. eigenvalues --    0.93945   0.95462   1.05692   1.08398   1.08401
  Beta virt. eigenvalues --    1.45458   1.72285   1.72289   2.17667   2.37486

 Mulliken charges and spin densities:
               1          2
     1  H   -0.000664  -0.000312
     2  H   -0.002572  -0.000058
     3  F    0.003236   1.000370
 Sum of Mulliken charges =   0.00000   1.00000

 Dipole moment (field-independent basis, Debye):
    X=              0.0435    Y=              0.0000    Z=              0.0000  Tot=              0.0435
 Quadrupole moment (field-independent basis, Debye-Ang):
   XX=             -6.2482   YY=             -6.2879   ZZ=             -7.1519
   XY=              0.0000   XZ=              0.0000   YZ=              0.0102

  Exact polarizability:      10.470       0.000       2.490      -0.000       0.005       2.026
 Approx polarizability:      12.986       0.000       2.671       0.000       0.007       2.089

 ******    1 imaginary frequencies (negative Signs) ******

                      1                      2                      3
                      A                      A                      A
 Frequencies --    -48.6085              1453.7130              1454.4165
 Red. masses --      1.1085                 1.0091                 1.0091
 Frc consts  --      0.0015                 1.2564                 1.2576
 IR Inten    --      0.1362                 0.0000                 0.0000

                      4
                      A
 Frequencies --   2642.5647
 Red. masses --      1.0078
 Frc consts  --      4.1465
 IR Inten    --      0.1044

 - Thermochemistry -
 -------------------
 Temperature   298.150 Kelvin.  Pressure   1.00000 Atm.
 Atom     1 has atomic number  1 and mass   1.00783

 Molecular mass:    21.01405 amu.
 Principal axes and moments of inertia in atomic units:
                           1         2         3
     Eigenvalues --     0.00000 105.57903 105.57903
           X            1.00000  -0.00000   0.00000
           Y            0.00000   1.00000   0.00000
           Z            0.00000   0.00000   1.00000
 This molecule is a prolate symmetric top.
 Rotational symmetry number  1.
 Rotational temperature (Kelvin)      0.82037
 Rotational constant (GHZ):          17.093747
    1 imaginary frequencies ignored.
 Zero-point vibrational energy      33200.5 (Joules/Mol)
                                    7.93512 (Kcal/Mol)
 Vibrational temperatures:   2091.57  2092.58  3802.06
          (Kelvin)

 Zero-point correction=                           0.012645 (Hartree/Particle)
 Thermal correction to Energy=                    0.015018
 Thermal correction to Enthalpy=                  0.015962
 Thermal correction to Gibbs Free Energy=        -0.007879
 Sum of electronic and zero-point Energies=           -100.909383
 Sum of electronic and thermal Energies=              -100.907011
 Sum of electronic and thermal Enthalpies=            -100.906067
 Sum of electronic and thermal Free Energies=         -100.929907

                     E (Thermal)             CV                S
                      KCal/Mol        Cal/Mol-Kelvin    Cal/Mol-Kelvin
 Total                    9.424              5.145             50.177
 Electronic               0.000              0.000              1.377
 Translational            0.889              2.981             35.068
 Rotational               0.592              1.987             13.703
 Vibrational              7.943              0.177              0.029

 Normal termination of Gaussian 16 at Fri Aug 22 22:20:18 2025.
