 Gaussian 16, Revision C.01,
 Gaussian 16:  ES64L-G16RevC.01  3-Jul-2019

 -----------------------------------------
 # sp b3lyp/6-311g** Force nosymm scf=(qc)
 -----------------------------------------

 -------------------
 Title Card Required
 -------------------
 Symbolic Z-matrix:
 Charge =  0 Multiplicity = 2

                          Input orientation:
 ---------------------------------------------------------------------
 Center     Atomic      Atomic             Coordinates (Angstroms)
 Number     Number       Type             X           Y           Z
 ---------------------------------------------------------------------
      1          1           0        0.000000    0.000000    0.000000
      2          1           0       -1.600000    0.000000    0.000000
      3          9           0        2.100000    0.000000    0.000000
 ---------------------------------------------------------------------

 SCF Done:  E(UB3LYP) =  -100.820611466     a.u. after   13 cycles

 Alpha  occ. eigenvalues --  -24.70056  -1.16374  -0.49349  -0.41315  -0.41315
 Alpha  occ. eigenvalues --   -0.37233
 Alpha virt. eigenvalues --   -0.11649   0.23005   0.31089   0.85232   0.94067
 Alpha virt. eigenvalues --    0.94067   1.02788   1.18532   1.18532   1.25312
 Alpha virt. eigenvalues --    1.36587   1.36587   1.74474   2.16924   2.41411

  Beta  occ. eigenvalues --  -24.67426  -1.08954  -0.38708  -0.38708  -0.36838
  Beta virt. eigenvalues --   -0.23329  -0.10339   0.25222   0.30688   0.89214
  Beta virt. eigenvalues --    0.95160   0.95160   1.06877   1.20200   1.20200
  Beta virt. eigenvalues --    1.29910   1.37331   1.37331   1.75536   2.17813

 Mulliken charges and spin densities:
               1          2
     1  H    0.079088  -0.449011
     2  H    0.057755   0.621601
     3  F   -0.136843   0.827410
 Sum of Mulliken charges =  -0.00000   1.00000

 Dipole moment (field-independent basis, Debye):
    X=             -1.8784    Y=              0.0000    Z=              0.0000  Tot=              1.8784
 Quadrupole moment (field-independent basis, Debye-Ang):
   XX=             -7.8111   YY=             -7.5789   ZZ=             -7.5789
   XY=              0.0000   XZ=              0.0000   YZ=             -0.0000

  Exact polarizability:      55.615       0.000       2.078       0.000       0.000       2.078
 Approx polarizability:      80.052      -0.000       2.023      -0.000       0.000       2.023

 ******    2 imaginary frequencies (negative Signs) ******

                      1                      2                      3
                      A                      A                      A
 Frequencies --  -2083.6159              -488.4900               975.4158
 Red. masses --      1.0107                 1.1051                 1.0150
 Frc consts  --      2.5852                 0.1554                 0.5690
 IR Inten    --    516.1867                31.2219                 1.8940

                      4
                      A
 Frequencies --    975.4158
 Red. masses --      1.0150
 Frc consts  --      0.5690
 IR Inten    --      1.8940

 - Thermochemistry -
 -------------------
 Temperature   298.150 Kelvin.  Pressure   1.00000 Atm.
 Atom     1 has atomic number  1 and mass   1.00783

 Molecular mass:    21.01405 amu.
 Principal axes and moments of inertia in atomic units:
                           1         2         3
     Eigenvalues --     0.00000  59.33556  59.33556
           X            1.00000  -0.00000   0.00000
           Y            0.00000   1.00000   0.00000
           Z            0.00000   0.00000   1.00000
 This molecule is a prolate symmetric top.
 Rotational symmetry number  1.
 Rotational temperature (Kelvin)      1.45973
 Rotational constant (GHZ):          30.415846
    2 imaginary frequencies ignored.
 Zero-point vibrational energy      11668.6 (Joules/Mol)
                                    2.78885 (Kcal/Mol)
 Vibrational temperatures:   1403.41  1403.41
          (Kelvin)

 Zero-point correction=                           0.004444 (Hartree/Particle)
 Thermal correction to Energy=                    0.006886
 Thermal correction to Enthalpy=                  0.007830
 Thermal correction to Gibbs Free Energy=        -0.015551
 Sum of electronic and zero-point Energies=           -100.816167
 Sum of electronic and thermal Energies=              -100.813726
 Sum of electronic and thermal Enthalpies=            -100.812781
 Sum of electronic and thermal Free Energies=         -100.836163

                     E (Thermal)             CV                S
                      KCal/Mol        Cal/Mol-Kelvin    Cal/Mol-Kelvin
 Total                    4.321              5.778             49.210
 Electronic               0.000              0.000              1.377
 Translational            0.889              2.981             35.068
 Rotational               0.592              1.987             12.558
 Vibrational              2.840              0.810              0.207

 Normal termination of Gaussian 16 at Fri Aug 22 17:03:28 2025.
