 Gaussian 16, Revision C.01,
 Gaussian 16:  ES64L-G16RevC.01  3-Jul-2019

 -----------------------------------------
 # sp b3lyp/6-311g** Force nosymm scf=(qc)
 -----------------------------------------

 -------------------
 Title Card Required
 -------------------
 Symbolic Z-matrix:
 Charge =  0 Multiplicity = 2

                          Input orientation:
 ---------------------------------------------------------------------
 Center     Atomic      Atomic             Coordinates (Angstroms)
 Number     Number       Type             X           Y           Z
 ---------------------------------------------------------------------
      1          1           0        0.000000    0.000000    0.000000
      2          1           0       -2.800000    0.000000    0.000000
      3          9           0        0.850000    0.000000    0.000000
 ---------------------------------------------------------------------

 SCF Done:  E(UB3LYP) =  -100.965660355     a.u. after    6 cycles

 Alpha  occ. eigenvalues --  -24.63817  -1.20867  -0.54992  -0.40098  -0.40098
 Alpha  occ. eigenvalues --   -0.34282
 Alpha virt. eigenvalues --    0.04816   0.25373   0.42467   0.94372   0.94372
 Alpha virt. eigenvalues --    0.97378   1.21347   1.23256   1.23256   1.34953
 Alpha virt. eigenvalues --    1.38396   1.38396   2.03589   2.14521   2.42986

  Beta  occ. eigenvalues --  -24.63810  -1.20850  -0.54969  -0.40093  -0.40093
  Beta virt. eigenvalues --   -0.07612   0.06123   0.38230   0.42840   0.94373
  Beta virt. eigenvalues --    0.94373   0.97383   1.30108   1.38391   1.38391
  Beta virt. eigenvalues --    1.48138   1.48138   1.51137   2.03696   2.41725

 Mulliken charges and spin densities:
               1          2
     1  H    0.281970   0.002090
     2  H    0.003207   0.995519
     3  F   -0.285177   0.002392
 Sum of Mulliken charges =   0.00000   1.00000

 Dipole moment (field-independent basis, Debye):
    X=             -1.8537    Y=              0.0000    Z=             -0.0000  Tot=              1.8537
 Quadrupole moment (field-independent basis, Debye-Ang):
   XX=             -7.6274   YY=             -6.8174   ZZ=             -6.8174
   XY=              0.0000   XZ=             -0.0000   YZ=             -0.0000

  Exact polarizability:       6.174      -0.000       2.452      -0.000       0.000       2.452
 Approx polarizability:       6.746      -0.000       2.434       0.000       0.000       2.434

 ******    3 imaginary frequencies (negative Signs) ******

                      1                      2                      3
                      A                      A                      A
 Frequencies --  -1317.3363             -1317.3363               -47.2503
 Red. masses --      1.0360                 1.0360                 1.0532
 Frc consts  --      1.0593                 1.0593                 0.0014
 IR Inten    --    180.5531               180.5531                 0.2495

                      4
                      A
 Frequencies --   5309.5138
 Red. masses --      1.0583
 Frc consts  --     17.5787
 IR Inten    --    116.5253

 - Thermochemistry -
 -------------------
 Temperature   298.150 Kelvin.  Pressure   1.00000 Atm.
 Atom     1 has atomic number  1 and mass   1.00783

 Molecular mass:    21.01405 amu.
 Principal axes and moments of inertia in atomic units:
                           1         2         3
     Eigenvalues --     0.00000  47.05278  47.05278
           X            1.00000  -0.00000   0.00000
           Y            0.00000   1.00000   0.00000
           Z            0.00000   0.00000   1.00000
 This molecule is a prolate symmetric top.
 Rotational symmetry number  1.
 Rotational temperature (Kelvin)      1.84078
 Rotational constant (GHZ):          38.355672
    3 imaginary frequencies ignored.
 Zero-point vibrational energy      31757.9 (Joules/Mol)
                                    7.59033 (Kcal/Mol)
 Vibrational temperatures:   7639.21
          (Kelvin)

 Zero-point correction=                           0.012096 (Hartree/Particle)
 Thermal correction to Energy=                    0.014456
 Thermal correction to Enthalpy=                  0.015401
 Thermal correction to Gibbs Free Energy=        -0.007663
 Sum of electronic and zero-point Energies=           -100.953564
 Sum of electronic and thermal Energies=              -100.951204
 Sum of electronic and thermal Enthalpies=            -100.950260
 Sum of electronic and thermal Free Energies=         -100.973324

                     E (Thermal)             CV                S
                      KCal/Mol        Cal/Mol-Kelvin    Cal/Mol-Kelvin
 Total                    9.072              4.968             48.542
 Electronic               0.000              0.000              1.377
 Translational            0.889              2.981             35.068
 Rotational               0.592              1.987             12.097
 Vibrational              7.590              0.000              0.000

 Normal termination of Gaussian 16 at Fri Aug 22 15:53:59 2025.
