 Gaussian 16, Revision C.01,
 Gaussian 16:  ES64L-G16RevC.01  3-Jul-2019

 -----------------------------------------
 # sp b3lyp/6-311g** Force nosymm scf=(qc)
 -----------------------------------------

 -------------------
 Title Card Required
 -------------------
 Symbolic Z-matrix:
 Charge =  0 Multiplicity = 2

                          Input orientation:
 ---------------------------------------------------------------------
 Center     Atomic      Atomic             Coordinates (Angstroms)
 Number     Number       Type             X           Y           Z
 ---------------------------------------------------------------------
      1          1           0        0.000000    0.000000    0.000000
      2          1           0       -3.600000    0.000000    0.000000
      3          9           0        3.250000    0.000000    0.000000
 ---------------------------------------------------------------------

 SCF Done:  E(UB3LYP) =  -100.759727549     a.u. after   22 cycles

 Alpha  occ. eigenvalues --  -24.74851  -1.20854  -0.53972  -0.45316  -0.45316
 Alpha  occ. eigenvalues --   -0.32407
 Alpha virt. eigenvalues --   -0.07313   0.24110   0.36611   0.88467   0.91811
 Alpha virt. eigenvalues --    0.91811   1.02653   1.25095   1.25095   1.25201
 Alpha virt. eigenvalues --    1.44921   1.44921   1.45163   2.14806   2.41194

  Beta  occ. eigenvalues --  -24.71771  -1.12015  -0.42232  -0.42232  -0.33198
  Beta virt. eigenvalues --   -0.25200  -0.06357   0.23898   0.38006   0.93290
  Beta virt. eigenvalues --    0.93290   0.97416   1.06545   1.24182   1.24182
  Beta virt. eigenvalues --    1.24308   1.46055   1.46283   1.46283   2.15093

 Mulliken charges and spin densities:
               1          2
     1  H    0.021538  -0.974521
     2  H    0.000227   0.998369
     3  F   -0.021765   0.976152
 Sum of Mulliken charges =  -0.00000   1.00000

 Dipole moment (field-independent basis, Debye):
    X=             -0.3674    Y=              0.0000    Z=             -0.0000  Tot=              0.3674
 Quadrupole moment (field-independent basis, Debye-Ang):
   XX=             -7.8265   YY=             -7.6163   ZZ=             -7.6163
   XY=              0.0000   XZ=             -0.0000   YZ=              0.0000

  Exact polarizability:      28.847       0.000       2.030      -0.000       0.000       2.030
 Approx polarizability:      25.753       0.000       1.930      -0.000      -0.000       1.930

 ******    2 imaginary frequencies (negative Signs) ******

                      1                      2                      3
                      A                      A                      A
 Frequencies --   -294.4927              -102.8869                96.4804
 Red. masses --      1.0423                 1.0696                 1.0192
 Frc consts  --      0.0533                 0.0067                 0.0056
 IR Inten    --     23.2020                 0.6581                 0.4281

                      4
                      A
 Frequencies --     96.4804
 Red. masses --      1.0192
 Frc consts  --      0.0056
 IR Inten    --      0.4281

 - Thermochemistry -
 -------------------
 Temperature   298.150 Kelvin.  Pressure   1.00000 Atm.
 Atom     1 has atomic number  1 and mass   1.00783

 Molecular mass:    21.01405 amu.
 Principal axes and moments of inertia in atomic units:
                           1         2         3
     Eigenvalues --     0.00000 189.28137 189.28137
           X            1.00000  -0.00000   0.00000
           Y            0.00000   1.00000   0.00000
           Z            0.00000   0.00000   1.00000
 This molecule is a prolate symmetric top.
 Rotational symmetry number  1.
 Rotational temperature (Kelvin)      0.45759
 Rotational constant (GHZ):           9.534700
    2 imaginary frequencies ignored.
 Zero-point vibrational energy       1154.2 (Joules/Mol)
                                    0.27585 (Kcal/Mol)
 Warning -- explicit consideration of   2 degrees of freedom as
           vibrations may cause significant error
 Vibrational temperatures:    138.81   138.81
          (Kelvin)

 Zero-point correction=                           0.000440 (Hartree/Particle)
 Thermal correction to Energy=                    0.004283
 Thermal correction to Enthalpy=                  0.005227
 Thermal correction to Gibbs Free Energy=        -0.022500
 Sum of electronic and zero-point Energies=           -100.759288
 Sum of electronic and thermal Energies=              -100.755445
 Sum of electronic and thermal Enthalpies=            -100.754501
 Sum of electronic and thermal Free Energies=         -100.782228

                     E (Thermal)             CV                S
                      KCal/Mol        Cal/Mol-Kelvin    Cal/Mol-Kelvin
 Total                    2.688              8.871             58.357
 Electronic               0.000              0.000              1.377
 Translational            0.889              2.981             35.068
 Rotational               0.592              1.987             14.863
 Vibrational              1.206              3.903              7.048
 Vibration     1          0.603              1.952              3.524
 Vibration     2          0.603              1.952              3.524

 Normal termination of Gaussian 16 at Fri Aug 22 20:36:20 2025.
