 Gaussian 16, Revision C.01,
 Gaussian 16:  ES64L-G16RevC.01  3-Jul-2019

 -----------------------------------------
 # sp b3lyp/6-311g** Force nosymm scf=(qc)
 -----------------------------------------

 -------------------
 Title Card Required
 -------------------
 Symbolic Z-matrix:
 Charge =  0 Multiplicity = 2

                          Input orientation:
 ---------------------------------------------------------------------
 Center     Atomic      Atomic             Coordinates (Angstroms)
 Number     Number       Type             X           Y           Z
 ---------------------------------------------------------------------
      1          1           0        0.000000    0.000000    0.000000
      2          1           0       -3.000000    0.000000    0.000000
      3          9           0        0.550000    0.000000    0.000000
 ---------------------------------------------------------------------

 SCF Done:  E(UB3LYP) =  -100.519291942     a.u. after    6 cycles

 Alpha  occ. eigenvalues --  -24.62687  -1.38422  -0.62255  -0.43624  -0.43624
 Alpha  occ. eigenvalues --   -0.33672
 Alpha virt. eigenvalues --    0.08101   0.25581   0.60532   0.91204   0.91226
 Alpha virt. eigenvalues --    0.91226   1.22485   1.23853   1.23853   1.39314
 Alpha virt. eigenvalues --    1.54144   1.54144   1.96937   2.15130   3.65589

  Beta  occ. eigenvalues --  -24.62686  -1.38416  -0.62252  -0.43624  -0.43624
  Beta virt. eigenvalues --   -0.05920   0.09042   0.39281   0.60567   0.91218
  Beta virt. eigenvalues --    0.91221   0.91221   1.34987   1.50258   1.50258
  Beta virt. eigenvalues --    1.52803   1.54147   1.54147   1.96687   2.45069

 Mulliken charges and spin densities:
               1          2
     1  H    0.198283   0.001164
     2  H    0.001883   0.997651
     3  F   -0.200165   0.001186
 Sum of Mulliken charges =   0.00000   1.00000

 Dipole moment (field-independent basis, Debye):
    X=             -1.3850    Y=              0.0000    Z=              0.0000  Tot=              1.3850
 Quadrupole moment (field-independent basis, Debye-Ang):
   XX=             -6.7422   YY=             -6.4949   ZZ=             -6.4949
   XY=             -0.0000   XZ=              0.0000   YZ=             -0.0000

  Exact polarizability:       3.755       0.000       2.436      -0.000       0.000       2.436
 Approx polarizability:       3.872      -0.000       2.416      -0.000       0.000       2.416

 ******    2 imaginary frequencies (negative Signs) ******

                      1                      2                      3
                      A                      A                      A
 Frequencies --  -7489.5322             -7489.5322                20.2828
 Red. masses --      1.0431                 1.0431                 1.0532
 Frc consts  --     34.4723                34.4723                 0.0003
 IR Inten    --    253.4080               253.4080                 0.0763

                      4
                      A
 Frequencies --  15777.8852
 Red. masses --      1.0583
 Frc consts  --    155.2249
 IR Inten    --     92.1551

 - Thermochemistry -
 -------------------
 Temperature   298.150 Kelvin.  Pressure   1.00000 Atm.
 Atom     1 has atomic number  1 and mass   1.00783

 Molecular mass:    21.01405 amu.
 Principal axes and moments of inertia in atomic units:
                           1         2         3
     Eigenvalues --     0.00000  43.54368  43.54368
           X            1.00000  -0.00000   0.00000
           Y            0.00000   1.00000   0.00000
           Z            0.00000   0.00000   1.00000
 This molecule is a prolate symmetric top.
 Rotational symmetry number  1.
 Rotational temperature (Kelvin)      1.98913
 Rotational constant (GHZ):          41.446683
    2 imaginary frequencies ignored.
 Zero-point vibrational energy      94494.0 (Joules/Mol)
                                   22.58461 (Kcal/Mol)
 Warning -- explicit consideration of   1 degrees of freedom as
           vibrations may cause significant error
 Vibrational temperatures:     29.18 22700.86
          (Kelvin)

 Zero-point correction=                           0.035991 (Hartree/Particle)
 Thermal correction to Energy=                    0.039250
 Thermal correction to Enthalpy=                  0.040194
 Thermal correction to Gibbs Free Energy=         0.014065
 Sum of electronic and zero-point Energies=           -100.483301
 Sum of electronic and thermal Energies=              -100.480042
 Sum of electronic and thermal Enthalpies=            -100.479098
 Sum of electronic and thermal Free Energies=         -100.505227

                     E (Thermal)             CV                S
                      KCal/Mol        Cal/Mol-Kelvin    Cal/Mol-Kelvin
 Total                   24.630              6.954             54.995
 Electronic               0.000              0.000              1.377
 Translational            0.889              2.981             35.068
 Rotational               0.592              1.987             11.943
 Vibrational             23.149              1.986              6.606
 Vibration     1          0.593              1.986              6.606

 Normal termination of Gaussian 16 at Fri Aug 22 15:39:59 2025.
