 Gaussian 16, Revision C.01,
 Gaussian 16:  ES64L-G16RevC.01  3-Jul-2019

 -----------------------------------------
 # sp b3lyp/6-311g** Force nosymm scf=(qc)
 -----------------------------------------

 -------------------
 Title Card Required
 -------------------
 Symbolic Z-matrix:
 Charge =  0 Multiplicity = 2

                          Input orientation:
 ---------------------------------------------------------------------
 Center     Atomic      Atomic             Coordinates (Angstroms)
 Number     Number       Type             X           Y           Z
 ---------------------------------------------------------------------
      1          1           0        0.000000    0.000000    0.000000
      2          1           0       -2.950000    0.000000    0.000000
      3          9           0        2.850000    0.000000    0.000000
 ---------------------------------------------------------------------

 SCF Done:  E(UB3LYP) =  -100.763290209     a.u. after   20 cycles

 Alpha  occ. eigenvalues --  -24.73520  -1.19619  -0.52636  -0.44200  -0.44200
 Alpha  occ. eigenvalues --   -0.32867
 Alpha virt. eigenvalues --   -0.09614   0.24610   0.34772   0.89899   0.92614
 Alpha virt. eigenvalues --    0.92614   1.04851   1.24679   1.24679   1.25641
 Alpha virt. eigenvalues --    1.41726   1.41726   1.42565   2.15428   2.37997

  Beta  occ. eigenvalues --  -24.70533  -1.11073  -0.41213  -0.41213  -0.34159
  Beta virt. eigenvalues --   -0.24452  -0.07834   0.24809   0.36511   0.94060
  Beta virt. eigenvalues --    0.94060   0.98352   1.08496   1.23204   1.23204
  Beta virt. eigenvalues --    1.24832   1.44409   1.44409   1.44462   2.15650

 Mulliken charges and spin densities:
               1          2
     1  H    0.046710  -0.937324
     2  H    0.002296   0.991591
     3  F   -0.049005   0.945733
 Sum of Mulliken charges =  -0.00000   1.00000

 Dipole moment (field-independent basis, Debye):
    X=             -0.7487    Y=             -0.0000    Z=              0.0000  Tot=              0.7487
 Quadrupole moment (field-independent basis, Debye-Ang):
   XX=             -8.4752   YY=             -7.6160   ZZ=             -7.6160
   XY=             -0.0000   XZ=              0.0000   YZ=             -0.0000

  Exact polarizability:      36.195      -0.000       2.020       0.000       0.000       2.020
 Approx polarizability:      37.642      -0.000       1.922       0.000      -0.000       1.922

 ******    2 imaginary frequencies (negative Signs) ******

                      1                      2                      3
                      A                      A                      A
 Frequencies --   -502.1453              -206.8319               188.1027
 Red. masses --      1.0295                 1.0834                 1.0184
 Frc consts  --      0.1529                 0.0273                 0.0212
 IR Inten    --     45.1692                 6.1309                 1.9479

                      4
                      A
 Frequencies --    188.1027
 Red. masses --      1.0184
 Frc consts  --      0.0212
 IR Inten    --      1.9479

 - Thermochemistry -
 -------------------
 Temperature   298.150 Kelvin.  Pressure   1.00000 Atm.
 Atom     1 has atomic number  1 and mass   1.00783

 Molecular mass:    21.01405 amu.
 Principal axes and moments of inertia in atomic units:
                           1         2         3
     Eigenvalues --     0.00000 137.38871 137.38871
           X            1.00000  -0.00000   0.00000
           Y            0.00000   1.00000   0.00000
           Z            0.00000   0.00000   1.00000
 This molecule is a prolate symmetric top.
 Rotational symmetry number  1.
 Rotational temperature (Kelvin)      0.63043
 Rotational constant (GHZ):          13.136022
    2 imaginary frequencies ignored.
 Zero-point vibrational energy       2250.2 (Joules/Mol)
                                    0.53781 (Kcal/Mol)
 Warning -- explicit consideration of   2 degrees of freedom as
           vibrations may cause significant error
 Vibrational temperatures:    270.64   270.64
          (Kelvin)

 Zero-point correction=                           0.000857 (Hartree/Particle)
 Thermal correction to Energy=                    0.004377
 Thermal correction to Enthalpy=                  0.005321
 Thermal correction to Gibbs Free Energy=        -0.020890
 Sum of electronic and zero-point Energies=           -100.762433
 Sum of electronic and thermal Energies=              -100.758913
 Sum of electronic and thermal Enthalpies=            -100.757969
 Sum of electronic and thermal Free Energies=         -100.784180

                     E (Thermal)             CV                S
                      KCal/Mol        Cal/Mol-Kelvin    Cal/Mol-Kelvin
 Total                    2.746              8.680             55.165
 Electronic               0.000              0.000              1.377
 Translational            0.889              2.981             35.068
 Rotational               0.592              1.987             14.226
 Vibrational              1.265              3.712              4.493
 Vibration     1          0.633              1.856              2.246
 Vibration     2          0.633              1.856              2.246

 Normal termination of Gaussian 16 at Fri Aug 22 18:54:22 2025.
