 Gaussian 16, Revision C.01,
 Gaussian 16:  ES64L-G16RevC.01  3-Jul-2019

 -----------------------------------------
 # sp b3lyp/6-311g** Force nosymm scf=(qc)
 -----------------------------------------

 -------------------
 Title Card Required
 -------------------
 Symbolic Z-matrix:
 Charge =  0 Multiplicity = 2

                          Input orientation:
 ---------------------------------------------------------------------
 Center     Atomic      Atomic             Coordinates (Angstroms)
 Number     Number       Type             X           Y           Z
 ---------------------------------------------------------------------
      1          1           0        0.000000    0.000000    0.000000
      2          1           0       -2.200000    0.000000    0.000000
      3          9           0        3.150000    0.000000    0.000000
 ---------------------------------------------------------------------

 SCF Done:  E(UB3LYP) =  -100.768961302     a.u. after   29 cycles

 Alpha  occ. eigenvalues --  -24.74730  -1.20739  -0.53849  -0.45214  -0.45214
 Alpha  occ. eigenvalues --   -0.33233
 Alpha virt. eigenvalues --   -0.11028   0.25655   0.32813   0.88978   0.91883
 Alpha virt. eigenvalues --    0.91883   1.03105   1.23300   1.24607   1.24607
 Alpha virt. eigenvalues --    1.38461   1.38461   1.44656   2.13681   2.35581

  Beta  occ. eigenvalues --  -24.71663  -1.11936  -0.42142  -0.42142  -0.33541
  Beta virt. eigenvalues --   -0.25169  -0.10336   0.25764   0.33634   0.93357
  Beta virt. eigenvalues --    0.93357   0.97899   1.07068   1.22910   1.24203
  Beta virt. eigenvalues --    1.24203   1.39550   1.39550   1.45608   2.14774

 Mulliken charges and spin densities:
               1          2
     1  H    0.016111  -0.898584
     2  H    0.008383   0.926196
     3  F   -0.024494   0.972387
 Sum of Mulliken charges =   0.00000   1.00000

 Dipole moment (field-independent basis, Debye):
    X=             -0.4837    Y=             -0.0000    Z=             -0.0000  Tot=              0.4837
 Quadrupole moment (field-independent basis, Debye-Ang):
   XX=             -7.3679   YY=             -7.6901   ZZ=             -7.6901
   XY=             -0.0000   XZ=             -0.0000   YZ=             -0.0000

  Exact polarizability:      50.415      -0.000       2.010      -0.000       0.000       2.010
 Approx polarizability:      42.119      -0.000       1.926      -0.000       0.000       1.926

 ******    2 imaginary frequencies (negative Signs) ******

                      1                      2                      3
                      A                      A                      A
 Frequencies --  -1035.2364              -205.3356               399.2391
 Red. masses --      1.0080                 1.1082                 1.0142
 Frc consts  --      0.6365                 0.0275                 0.0952
 IR Inten    --     19.1137                19.2291                 0.1414

                      4
                      A
 Frequencies --    399.2391
 Red. masses --      1.0142
 Frc consts  --      0.0952
 IR Inten    --      0.1414

 - Thermochemistry -
 -------------------
 Temperature   298.150 Kelvin.  Pressure   1.00000 Atm.
 Atom     1 has atomic number  1 and mass   1.00783

 Molecular mass:    21.01405 amu.
 Principal axes and moments of inertia in atomic units:
                           1         2         3
     Eigenvalues --     0.00000 126.25293 126.25293
           X            1.00000  -0.00000   0.00000
           Y            0.00000   1.00000   0.00000
           Z            0.00000   0.00000   1.00000
 This molecule is a prolate symmetric top.
 Rotational symmetry number  1.
 Rotational temperature (Kelvin)      0.68603
 Rotational constant (GHZ):          14.294648
    2 imaginary frequencies ignored.
 Zero-point vibrational energy       4776.0 (Joules/Mol)
                                    1.14148 (Kcal/Mol)
 Warning -- explicit consideration of   2 degrees of freedom as
           vibrations may cause significant error
 Vibrational temperatures:    574.42   574.42
          (Kelvin)

 Zero-point correction=                           0.001819 (Hartree/Particle)
 Thermal correction to Energy=                    0.004800
 Thermal correction to Enthalpy=                  0.005744
 Thermal correction to Gibbs Free Energy=        -0.019169
 Sum of electronic and zero-point Energies=           -100.767142
 Sum of electronic and thermal Energies=              -100.764162
 Sum of electronic and thermal Enthalpies=            -100.763217
 Sum of electronic and thermal Free Energies=         -100.788131

                     E (Thermal)             CV                S
                      KCal/Mol        Cal/Mol-Kelvin    Cal/Mol-Kelvin
 Total                    3.012              7.912             52.435
 Electronic               0.000              0.000              1.377
 Translational            0.889              2.981             35.068
 Rotational               0.592              1.987             14.058
 Vibrational              1.531              2.944              1.931
 Vibration     1          0.765              1.472              0.965
 Vibration     2          0.765              1.472              0.965

 Normal termination of Gaussian 16 at Fri Aug 22 20:10:10 2025.
