 Gaussian 16, Revision C.01,
 Gaussian 16:  ES64L-G16RevC.01  3-Jul-2019

 -----------------------------------------
 # sp b3lyp/6-311g** Force nosymm scf=(qc)
 -----------------------------------------

 -------------------
 Title Card Required
 -------------------
 Symbolic Z-matrix:
 Charge =  0 Multiplicity = 2

                          Input orientation:
 ---------------------------------------------------------------------
 Center     Atomic      Atomic             Coordinates (Angstroms)
 Number     Number       Type             X           Y           Z
 ---------------------------------------------------------------------
      1          1           0        0.000000    0.000000    0.000000
      2          1           0       -3.500000    0.000000    0.000000
      3          9           0        0.900000    0.000000    0.000000
 ---------------------------------------------------------------------

 SCF Done:  E(UB3LYP) =  -100.971470486     a.u. after    5 cycles

 Alpha  occ. eigenvalues --  -24.63997  -1.19048  -0.53861  -0.39657  -0.39657
 Alpha  occ. eigenvalues --   -0.33612
 Alpha virt. eigenvalues --    0.03146   0.24394   0.39593   0.94332   0.94332
 Alpha virt. eigenvalues --    0.97747   1.23710   1.23901   1.23901   1.29687
 Alpha virt. eigenvalues --    1.37262   1.37262   2.00626   2.14388   2.37225

  Beta  occ. eigenvalues --  -24.63996  -1.19045  -0.53858  -0.39656  -0.39656
  Beta virt. eigenvalues --   -0.05574   0.03703   0.38055   0.40471   0.94332
  Beta virt. eigenvalues --    0.94332   0.97743   1.29370   1.37262   1.37262
  Beta virt. eigenvalues --    1.50419   1.50803   1.50803   2.00693   2.37172

 Mulliken charges and spin densities:
               1          2
     1  H    0.295455   0.000612
     2  H    0.000890   0.998929
     3  F   -0.296344   0.000460
 Sum of Mulliken charges =   0.00000   1.00000

 Dipole moment (field-independent basis, Debye):
    X=             -1.8940    Y=              0.0000    Z=              0.0000  Tot=              1.8940
 Quadrupole moment (field-independent basis, Debye-Ang):
   XX=             -7.9079   YY=             -6.8689   ZZ=             -6.8689
   XY=              0.0000   XZ=              0.0000   YZ=             -0.0000

  Exact polarizability:       5.597       0.000       2.426      -0.000       0.000       2.426
 Approx polarizability:       6.516       0.000       2.404      -0.000       0.000       2.404

 ******    3 imaginary frequencies (negative Signs) ******

                      1                      2                      3
                      A                      A                      A
 Frequencies --   -625.3714              -625.3714               -43.2699
 Red. masses --      1.0385                 1.0385                 1.0532
 Frc consts  --      0.2393                 0.2393                 0.0012
 IR Inten    --    181.4377               181.4377                 0.0413

                      4
                      A
 Frequencies --   4431.9463
 Red. masses --      1.0583
 Frc consts  --     12.2478
 IR Inten    --     99.8956

 - Thermochemistry -
 -------------------
 Temperature   298.150 Kelvin.  Pressure   1.00000 Atm.
 Atom     1 has atomic number  1 and mass   1.00783

 Molecular mass:    21.01405 amu.
 Principal axes and moments of inertia in atomic units:
                           1         2         3
     Eigenvalues --     0.00000  67.74347  67.74347
           X            1.00000  -0.00000   0.00000
           Y            0.00000   1.00000   0.00000
           Z            0.00000   0.00000   1.00000
 This molecule is a prolate symmetric top.
 Rotational symmetry number  1.
 Rotational temperature (Kelvin)      1.27856
 Rotational constant (GHZ):          26.640813
    3 imaginary frequencies ignored.
 Zero-point vibrational energy      26508.9 (Joules/Mol)
                                    6.33579 (Kcal/Mol)
 Vibrational temperatures:   6376.58
          (Kelvin)

 Zero-point correction=                           0.010097 (Hartree/Particle)
 Thermal correction to Energy=                    0.012457
 Thermal correction to Enthalpy=                  0.013401
 Thermal correction to Gibbs Free Energy=        -0.010007
 Sum of electronic and zero-point Energies=           -100.961374
 Sum of electronic and thermal Energies=              -100.959013
 Sum of electronic and thermal Enthalpies=            -100.958069
 Sum of electronic and thermal Free Energies=         -100.981477

                     E (Thermal)             CV                S
                      KCal/Mol        Cal/Mol-Kelvin    Cal/Mol-Kelvin
 Total                    7.817              4.968             49.267
 Electronic               0.000              0.000              1.377
 Translational            0.889              2.981             35.068
 Rotational               0.592              1.987             12.821
 Vibrational              6.336              0.000              0.000

 Normal termination of Gaussian 16 at Fri Aug 22 15:56:46 2025.
