 Gaussian 16, Revision C.01,
 Gaussian 16:  ES64L-G16RevC.01  3-Jul-2019

 -----------------------------------------
 # sp b3lyp/6-311g** Force nosymm scf=(qc)
 -----------------------------------------

 -------------------
 Title Card Required
 -------------------
 Symbolic Z-matrix:
 Charge =  0 Multiplicity = 2

                          Input orientation:
 ---------------------------------------------------------------------
 Center     Atomic      Atomic             Coordinates (Angstroms)
 Number     Number       Type             X           Y           Z
 ---------------------------------------------------------------------
      1          1           0        0.000000    0.000000    0.000000
      2          1           0       -0.500000    0.000000    0.000000
      3          9           0        0.700000    0.000000    0.000000
 ---------------------------------------------------------------------

 SCF Done:  E(UB3LYP) =  -100.590914940     a.u. after    6 cycles

 Alpha  occ. eigenvalues --  -24.70346  -1.41580  -0.74930  -0.48575  -0.48575
 Alpha  occ. eigenvalues --   -0.25460
 Alpha virt. eigenvalues --    0.17028   0.17436   0.82281   0.84029   0.84029
 Alpha virt. eigenvalues --    0.91590   1.11945   1.11945   1.46368   1.60157
 Alpha virt. eigenvalues --    2.01085   2.01085   2.05894   3.52382   3.72419

  Beta  occ. eigenvalues --  -24.69125  -1.37868  -0.70365  -0.47515  -0.47515
  Beta virt. eigenvalues --   -0.08160   0.17559   0.22288   0.85128   0.85745
  Beta virt. eigenvalues --    0.85745   0.96205   1.16518   1.16518   1.47720
  Beta virt. eigenvalues --    1.64378   2.06310   2.06310   2.13309   3.57872

 Mulliken charges and spin densities:
               1          2
     1  H    0.288521  -0.109827
     2  H   -0.216942   0.929024
     3  F   -0.071579   0.180804
 Sum of Mulliken charges =   0.00000   1.00000

 Dipole moment (field-independent basis, Debye):
    X=             -0.2722    Y=             -0.0000    Z=              0.0000  Tot=              0.2722
 Quadrupole moment (field-independent basis, Debye-Ang):
   XX=             -7.5547   YY=             -6.4418   ZZ=             -6.4418
   XY=             -0.0000   XZ=              0.0000   YZ=              0.0000

  Exact polarizability:       9.182      -0.000       2.430       0.000      -0.000       2.430
 Approx polarizability:       9.193       0.000       2.542      -0.000       0.000       2.542

 ******    2 imaginary frequencies (negative Signs) ******

                      1                      2                      3
                      A                      A                      A
 Frequencies --  -6436.1575             -6436.1575              5619.2621
 Red. masses --      1.0144                 1.0144                 1.0976
 Frc consts  --     24.7574                24.7574                20.4198
 IR Inten    --    123.5581               123.5581               532.8504

                      4
                      A
 Frequencies --  11832.3197
 Red. masses --      1.0170
 Frc consts  --     83.8919
 IR Inten    --      8.3854

 - Thermochemistry -
 -------------------
 Temperature   298.150 Kelvin.  Pressure   1.00000 Atm.
 Atom     1 has atomic number  1 and mass   1.00783

 Molecular mass:    21.01405 amu.
 Principal axes and moments of inertia in atomic units:
                           1         2         3
     Eigenvalues --     0.00000   6.32298   6.32298
           X            1.00000  -0.00000   0.00000
           Y            0.00000   1.00000   0.00000
           Z            0.00000   0.00000   1.00000
 This molecule is a prolate symmetric top.
 Rotational symmetry number  1.
 Rotational temperature (Kelvin)     13.69829
 Rotational constant (GHZ):         285.425936
    2 imaginary frequencies ignored.
 Zero-point vibrational energy     104383.6 (Joules/Mol)
                                   24.94829 (Kcal/Mol)
 Vibrational temperatures:   8084.86 17024.07
          (Kelvin)

 Zero-point correction=                           0.039758 (Hartree/Particle)
 Thermal correction to Energy=                    0.042118
 Thermal correction to Enthalpy=                  0.043062
 Thermal correction to Gibbs Free Energy=         0.021893
 Sum of electronic and zero-point Energies=           -100.551157
 Sum of electronic and thermal Energies=              -100.548797
 Sum of electronic and thermal Enthalpies=            -100.547853
 Sum of electronic and thermal Free Energies=         -100.569022

                     E (Thermal)             CV                S
                      KCal/Mol        Cal/Mol-Kelvin    Cal/Mol-Kelvin
 Total                   26.430              4.968             44.554
 Electronic               0.000              0.000              1.377
 Translational            0.889              2.981             35.068
 Rotational               0.592              1.987              8.108
 Vibrational             24.948              0.000              0.000

 Normal termination of Gaussian 16 at Fri Aug 22 15:45:22 2025.
