 Gaussian 16, Revision C.01,
 Gaussian 16:  ES64L-G16RevC.01  3-Jul-2019

 -----------------------------------------
 # sp b3lyp/6-311g** Force nosymm scf=(qc)
 -----------------------------------------

 -------------------
 Title Card Required
 -------------------
 Symbolic Z-matrix:
 Charge =  0 Multiplicity = 2

                          Input orientation:
 ---------------------------------------------------------------------
 Center     Atomic      Atomic             Coordinates (Angstroms)
 Number     Number       Type             X           Y           Z
 ---------------------------------------------------------------------
      1          1           0        0.000000    0.000000    0.000000
      2          1           0       -1.450000    0.000000    0.000000
      3          9           0        0.600000    0.000000    0.000000
 ---------------------------------------------------------------------

 SCF Done:  E(UB3LYP) =  -100.679062492     a.u. after    6 cycles

 Alpha  occ. eigenvalues --  -24.62998  -1.35289  -0.62013  -0.43275  -0.43275
 Alpha  occ. eigenvalues --   -0.35622
 Alpha virt. eigenvalues --    0.14295   0.21668   0.60675   0.91433   0.91433
 Alpha virt. eigenvalues --    0.92254   1.17352   1.17352   1.42358   1.55107
 Alpha virt. eigenvalues --    1.55107   1.65221   1.95897   2.23208   3.60284

  Beta  occ. eigenvalues --  -24.62881  -1.34923  -0.61422  -0.43193  -0.43193
  Beta virt. eigenvalues --   -0.11688   0.15383   0.30116   0.65535   0.91653
  Beta virt. eigenvalues --    0.91653   0.92503   1.31364   1.31364   1.45303
  Beta virt. eigenvalues --    1.59024   1.59024   1.76881   1.95840   2.46553

 Mulliken charges and spin densities:
               1          2
     1  H    0.223057   0.015196
     2  H    0.008998   0.974338
     3  F   -0.232055   0.010466
 Sum of Mulliken charges =   0.00000   1.00000

 Dipole moment (field-independent basis, Debye):
    X=             -1.4216    Y=              0.0000    Z=              0.0000  Tot=              1.4216
 Quadrupole moment (field-independent basis, Debye-Ang):
   XX=             -6.8833   YY=             -6.4668   ZZ=             -6.4668
   XY=              0.0000   XZ=              0.0000   YZ=              0.0000

  Exact polarizability:       6.338      -0.000       2.518       0.000      -0.000       2.518
 Approx polarizability:       6.052      -0.000       2.536      -0.000      -0.000       2.536

 ******    2 imaginary frequencies (negative Signs) ******

                      1                      2                      3
                      A                      A                      A
 Frequencies --  -5734.2534             -5734.2534               988.9791
 Red. masses --      1.0311                 1.0311                 1.0535
 Frc consts  --     19.9763                19.9763                 0.6071
 IR Inten    --    171.8130               171.8130                 8.3475

                      4
                      A
 Frequencies --  13068.9876
 Red. masses --      1.0580
 Frc consts  --    106.4731
 IR Inten    --    107.1101

 - Thermochemistry -
 -------------------
 Temperature   298.150 Kelvin.  Pressure   1.00000 Atm.
 Atom     1 has atomic number  1 and mass   1.00783

 Molecular mass:    21.01405 amu.
 Principal axes and moments of inertia in atomic units:
                           1         2         3
     Eigenvalues --     0.00000  15.20834  15.20834
           X            1.00000  -0.00000   0.00000
           Y            0.00000   1.00000   0.00000
           Z            0.00000   0.00000   1.00000
 This molecule is a prolate symmetric top.
 Rotational symmetry number  1.
 Rotational temperature (Kelvin)      5.69516
 Rotational constant (GHZ):         118.667828
    2 imaginary frequencies ignored.
 Zero-point vibrational energy      84085.3 (Joules/Mol)
                                   20.09687 (Kcal/Mol)
 Vibrational temperatures:   1422.92 18803.36
          (Kelvin)

 Zero-point correction=                           0.032026 (Hartree/Particle)
 Thermal correction to Energy=                    0.034425
 Thermal correction to Enthalpy=                  0.035369
 Thermal correction to Gibbs Free Energy=         0.013325
 Sum of electronic and zero-point Energies=           -100.647036
 Sum of electronic and thermal Energies=              -100.644637
 Sum of electronic and thermal Enthalpies=            -100.643693
 Sum of electronic and thermal Free Energies=         -100.665737

                     E (Thermal)             CV                S
                      KCal/Mol        Cal/Mol-Kelvin    Cal/Mol-Kelvin
 Total                   21.602              5.357             46.396
 Electronic               0.000              0.000              1.377
 Translational            0.889              2.981             35.068
 Rotational               0.592              1.987              9.853
 Vibrational             20.121              0.389              0.098

 Normal termination of Gaussian 16 at Fri Aug 22 15:41:19 2025.
