 Gaussian 16, Revision C.01,
 Gaussian 16:  ES64L-G16RevC.01  3-Jul-2019

 -----------------------------------------
 # sp b3lyp/6-311g** Force nosymm scf=(qc)
 -----------------------------------------

 -------------------
 Title Card Required
 -------------------
 Symbolic Z-matrix:
 Charge =  0 Multiplicity = 2

                          Input orientation:
 ---------------------------------------------------------------------
 Center     Atomic      Atomic             Coordinates (Angstroms)
 Number     Number       Type             X           Y           Z
 ---------------------------------------------------------------------
      1          1           0        0.000000    0.000000    0.000000
      2          1           0       -0.650000    0.000000    0.000000
      3          9           0        3.950000    0.000000    0.000000
 ---------------------------------------------------------------------

 SCF Done:  E(UB3LYP) =  -100.926388629     a.u. after  135 cycles

 Alpha  occ. eigenvalues --  -24.76174  -1.22066  -0.55270  -0.46448  -0.46426
 Alpha  occ. eigenvalues --   -0.45390
 Alpha virt. eigenvalues --    0.07567   0.19178   0.50106   0.86102   0.90980
 Alpha virt. eigenvalues --    0.91803   1.01127   1.09468   1.09470   1.59167
 Alpha virt. eigenvalues --    1.83885   1.89266   1.89268   2.37361   3.64952

  Beta  occ. eigenvalues --  -24.73018  -1.12992  -0.45399  -0.43275  -0.43262
  Beta virt. eigenvalues --   -0.25919   0.07574   0.19181   0.50134   0.92480
  Beta virt. eigenvalues --    0.93291   0.95568   1.05258   1.09468   1.09470
  Beta virt. eigenvalues --    1.59169   1.83894   1.89266   1.89268   2.37362

 Mulliken charges and spin densities:
               1          2
     1  H   -0.000010  -0.000184
     2  H   -0.001470   0.000026
     3  F    0.001480   1.000158
 Sum of Mulliken charges =   0.00000   1.00000

 Dipole moment (field-independent basis, Debye):
    X=              0.0216    Y=             -0.0000    Z=              0.0000  Tot=              0.0216
 Quadrupole moment (field-independent basis, Debye-Ang):
   XX=             -6.2670   YY=             -6.7890   ZZ=             -5.9642
   XY=             -0.0000   XZ=             -0.0000   YZ=              0.1296

  Exact polarizability:       6.798      -0.000       1.910      -0.000       0.070       2.355
 Approx polarizability:       7.574      -0.000       1.993      -0.000       0.087       2.548

 ******    3 imaginary frequencies (negative Signs) ******

                      1                      2                      3
                      A                      A                      A
 Frequencies --  -1960.4901             -1959.1500               -59.6174
 Red. masses --      1.0084                 1.0084                 1.1085
 Frc consts  --      2.2836                 2.2805                 0.0023
 IR Inten    --      0.0000                 0.0000                 0.0478

                      4
                      A
 Frequencies --   5975.9947
 Red. masses --      1.0078
 Frc consts  --     21.2059
 IR Inten    --      0.0170

 - Thermochemistry -
 -------------------
 Temperature   298.150 Kelvin.  Pressure   1.00000 Atm.
 Atom     1 has atomic number  1 and mass   1.00783

 Molecular mass:    21.01405 amu.
 Principal axes and moments of inertia in atomic units:
                           1         2         3
     Eigenvalues --     0.00000 119.69055 119.69055
           X            1.00000  -0.00000   0.00000
           Y            0.00000   1.00000   0.00000
           Z            0.00000   0.00000   1.00000
 This molecule is a prolate symmetric top.
 Rotational symmetry number  1.
 Rotational temperature (Kelvin)      0.72365
 Rotational constant (GHZ):          15.078393
    3 imaginary frequencies ignored.
 Zero-point vibrational energy      35744.4 (Joules/Mol)
                                    8.54311 (Kcal/Mol)
 Vibrational temperatures:   8598.12
          (Kelvin)

 Zero-point correction=                           0.013614 (Hartree/Particle)
 Thermal correction to Energy=                    0.015975
 Thermal correction to Enthalpy=                  0.016919
 Thermal correction to Gibbs Free Energy=        -0.007027
 Sum of electronic and zero-point Energies=           -100.912774
 Sum of electronic and thermal Energies=              -100.910414
 Sum of electronic and thermal Enthalpies=            -100.909470
 Sum of electronic and thermal Free Energies=         -100.933415

                     E (Thermal)             CV                S
                      KCal/Mol        Cal/Mol-Kelvin    Cal/Mol-Kelvin
 Total                   10.024              4.968             50.398
 Electronic               0.000              0.000              1.377
 Translational            0.889              2.981             35.068
 Rotational               0.592              1.987             13.952
 Vibrational              8.543              0.000              0.000

 Normal termination of Gaussian 16 at Sat Aug 23 01:29:23 2025.
