 Gaussian 16, Revision C.01,
 Gaussian 16:  ES64L-G16RevC.01  3-Jul-2019

 -----------------------------------------
 # sp b3lyp/6-311g** Force nosymm scf=(qc)
 -----------------------------------------

 -------------------
 Title Card Required
 -------------------
 Symbolic Z-matrix:
 Charge =  0 Multiplicity = 2

                          Input orientation:
 ---------------------------------------------------------------------
 Center     Atomic      Atomic             Coordinates (Angstroms)
 Number     Number       Type             X           Y           Z
 ---------------------------------------------------------------------
      1          1           0        0.000000    0.000000    0.000000
      2          1           0       -0.900000    0.000000    0.000000
      3          9           0        0.900000    0.000000    0.000000
 ---------------------------------------------------------------------

 SCF Done:  E(UB3LYP) =  -100.942387027     a.u. after    7 cycles

 Alpha  occ. eigenvalues --  -24.65393  -1.21520  -0.61381  -0.41082  -0.41082
 Alpha  occ. eigenvalues --   -0.35165
 Alpha virt. eigenvalues --    0.14764   0.18392   0.55197   0.88837   0.88837
 Alpha virt. eigenvalues --    0.95791   1.08427   1.08427   1.45097   1.67642
 Alpha virt. eigenvalues --    1.67642   1.75197   2.14059   2.31756   3.39494

  Beta  occ. eigenvalues --  -24.64476  -1.19159  -0.56035  -0.40273  -0.40273
  Beta virt. eigenvalues --   -0.16784   0.16425   0.21465   0.60892   0.90728
  Beta virt. eigenvalues --    0.90728   0.97636   1.13866   1.13866   1.46768
  Beta virt. eigenvalues --    1.72750   1.72750   1.85018   2.14435   2.43497

 Mulliken charges and spin densities:
               1          2
     1  H    0.271557  -0.013831
     2  H   -0.011531   0.799039
     3  F   -0.260026   0.214792
 Sum of Mulliken charges =   0.00000   1.00000

 Dipole moment (field-independent basis, Debye):
    X=             -1.6357    Y=              0.0000    Z=              0.0000  Tot=              1.6357
 Quadrupole moment (field-independent basis, Debye-Ang):
   XX=             -7.5595   YY=             -6.5840   ZZ=             -6.5840
   XY=              0.0000   XZ=              0.0000   YZ=              0.0000

  Exact polarizability:      12.157       0.000       2.577       0.000       0.000       2.577
 Approx polarizability:      13.562      -0.000       2.624      -0.000       0.000       2.624

 ******    2 imaginary frequencies (negative Signs) ******

                      1                      2                      3
                      A                      A                      A
 Frequencies --  -1614.5817             -1614.5817              2121.4117
 Red. masses --      1.0179                 1.0179                 1.0616
 Frc consts  --      1.5635                 1.5635                 2.8150
 IR Inten    --     68.2889                68.2889                98.4711

                      4
                      A
 Frequencies --   4053.1836
 Red. masses --      1.0500
 Frc consts  --     10.1630
 IR Inten    --     13.8103

 - Thermochemistry -
 -------------------
 Temperature   298.150 Kelvin.  Pressure   1.00000 Atm.
 Atom     1 has atomic number  1 and mass   1.00783

 Molecular mass:    21.01405 amu.
 Principal axes and moments of inertia in atomic units:
                           1         2         3
     Eigenvalues --     0.00000  13.31768  13.31768
           X            1.00000  -0.00000   0.00000
           Y            0.00000   1.00000   0.00000
           Z            0.00000   0.00000   1.00000
 This molecule is a prolate symmetric top.
 Rotational symmetry number  1.
 Rotational temperature (Kelvin)      6.50368
 Rotational constant (GHZ):         135.514683
    2 imaginary frequencies ignored.
 Zero-point vibrational energy      36932.3 (Joules/Mol)
                                    8.82703 (Kcal/Mol)
 Vibrational temperatures:   3052.24  5831.63
          (Kelvin)

 Zero-point correction=                           0.014067 (Hartree/Particle)
 Thermal correction to Energy=                    0.016428
 Thermal correction to Enthalpy=                  0.017372
 Thermal correction to Gibbs Free Energy=        -0.004501
 Sum of electronic and zero-point Energies=           -100.928320
 Sum of electronic and thermal Energies=              -100.925959
 Sum of electronic and thermal Enthalpies=            -100.925015
 Sum of electronic and thermal Free Energies=         -100.946888

                     E (Thermal)             CV                S
                      KCal/Mol        Cal/Mol-Kelvin    Cal/Mol-Kelvin
 Total                   10.308              4.975             46.035
 Electronic               0.000              0.000              1.377
 Translational            0.889              2.981             35.068
 Rotational               0.592              1.987              9.589
 Vibrational              8.827              0.007              0.001

 Normal termination of Gaussian 16 at Fri Aug 22 15:55:03 2025.
