 Gaussian 16, Revision C.01,
 Gaussian 16:  ES64L-G16RevC.01  3-Jul-2019

 -----------------------------------------
 # sp b3lyp/6-311g** Force nosymm scf=(qc)
 -----------------------------------------

 -------------------
 Title Card Required
 -------------------
 Symbolic Z-matrix:
 Charge =  0 Multiplicity = 2

                          Input orientation:
 ---------------------------------------------------------------------
 Center     Atomic      Atomic             Coordinates (Angstroms)
 Number     Number       Type             X           Y           Z
 ---------------------------------------------------------------------
      1          1           0        0.000000    0.000000    0.000000
      2          1           0       -3.850000    0.000000    0.000000
      3          9           0        2.600000    0.000000    0.000000
 ---------------------------------------------------------------------

 SCF Done:  E(UB3LYP) =  -100.765371231     a.u. after   20 cycles

 Alpha  occ. eigenvalues --  -24.72292  -1.18476  -0.51401  -0.43174  -0.43174
 Alpha  occ. eigenvalues --   -0.32702
 Alpha virt. eigenvalues --   -0.09585   0.23541   0.35540   0.89838   0.93315
 Alpha virt. eigenvalues --    0.93315   1.05946   1.24798   1.24798   1.24831
 Alpha virt. eigenvalues --    1.41349   1.41349   1.44331   2.14206   2.38292

  Beta  occ. eigenvalues --  -24.69401  -1.10233  -0.40289  -0.40289  -0.34962
  Beta virt. eigenvalues --   -0.23694  -0.06176   0.23777   0.38104   0.94714
  Beta virt. eigenvalues --    0.94714   0.96980   1.08607   1.22401   1.22401
  Beta virt. eigenvalues --    1.27227   1.46371   1.46559   1.46559   2.12890

 Mulliken charges and spin densities:
               1          2
     1  H    0.076627  -0.913245
     2  H    0.000319   0.999132
     3  F   -0.076946   0.914113
 Sum of Mulliken charges =  -0.00000   1.00000

 Dipole moment (field-independent basis, Debye):
    X=             -1.0266    Y=              0.0000    Z=             -0.0000  Tot=              1.0266
 Quadrupole moment (field-independent basis, Debye-Ang):
   XX=             -9.1568   YY=             -7.5781   ZZ=             -7.5781
   XY=              0.0000   XZ=             -0.0000   YZ=              0.0000

  Exact polarizability:      30.671       0.000       2.025      -0.000       0.000       2.025
 Approx polarizability:      37.818       0.000       1.921      -0.000      -0.000       1.921

 ******    2 imaginary frequencies (negative Signs) ******

                      1                      2                      3
                      A                      A                      A
 Frequencies --   -551.0938               -81.0933               210.9646
 Red. masses --      1.0560                 1.0555                 1.0233
 Frc consts  --      0.1890                 0.0041                 0.0268
 IR Inten    --     71.8540                 0.0675                 5.7154

                      4
                      A
 Frequencies --    210.9646
 Red. masses --      1.0233
 Frc consts  --      0.0268
 IR Inten    --      5.7154

 - Thermochemistry -
 -------------------
 Temperature   298.150 Kelvin.  Pressure   1.00000 Atm.
 Atom     1 has atomic number  1 and mass   1.00783

 Molecular mass:    21.01405 amu.
 Principal axes and moments of inertia in atomic units:
                           1         2         3
     Eigenvalues --     0.00000 159.92011 159.92011
           X            1.00000  -0.00000   0.00000
           Y            0.00000   1.00000   0.00000
           Z            0.00000   0.00000   1.00000
 This molecule is a prolate symmetric top.
 Rotational symmetry number  1.
 Rotational temperature (Kelvin)      0.54161
 Rotational constant (GHZ):          11.285267
    2 imaginary frequencies ignored.
 Zero-point vibrational energy       2523.7 (Joules/Mol)
                                    0.60318 (Kcal/Mol)
 Warning -- explicit consideration of   2 degrees of freedom as
           vibrations may cause significant error
 Vibrational temperatures:    303.53   303.53
          (Kelvin)

 Zero-point correction=                           0.000961 (Hartree/Particle)
 Thermal correction to Energy=                    0.004409
 Thermal correction to Enthalpy=                  0.005353
 Thermal correction to Gibbs Free Energy=        -0.020800
 Sum of electronic and zero-point Energies=           -100.764410
 Sum of electronic and thermal Energies=              -100.760962
 Sum of electronic and thermal Enthalpies=            -100.760018
 Sum of electronic and thermal Free Energies=         -100.786171

                     E (Thermal)             CV                S
                      KCal/Mol        Cal/Mol-Kelvin    Cal/Mol-Kelvin
 Total                    2.767              8.616             55.044
 Electronic               0.000              0.000              1.377
 Translational            0.889              2.981             35.068
 Rotational               0.592              1.987             14.528
 Vibrational              1.286              3.648              4.071
 Vibration     1          0.643              1.824              2.035
 Vibration     2          0.643              1.824              2.035

 Normal termination of Gaussian 16 at Fri Aug 22 18:05:32 2025.
