 Gaussian 16, Revision C.01,
 Gaussian 16:  ES64L-G16RevC.01  3-Jul-2019

 -----------------------------------------
 # sp b3lyp/6-311g** Force nosymm scf=(qc)
 -----------------------------------------

 -------------------
 Title Card Required
 -------------------
 Symbolic Z-matrix:
 Charge =  0 Multiplicity = 2

                          Input orientation:
 ---------------------------------------------------------------------
 Center     Atomic      Atomic             Coordinates (Angstroms)
 Number     Number       Type             X           Y           Z
 ---------------------------------------------------------------------
      1          1           0        0.000000    0.000000    0.000000
      2          1           0       -2.200000    0.000000    0.000000
      3          9           0        3.350000    0.000000    0.000000
 ---------------------------------------------------------------------

 SCF Done:  E(UB3LYP) =  -100.768281745     a.u. after   27 cycles

 Alpha  occ. eigenvalues --  -24.75239  -1.21212  -0.54360  -0.45644  -0.45644
 Alpha  occ. eigenvalues --   -0.33027
 Alpha virt. eigenvalues --   -0.10704   0.25796   0.33045   0.88147   0.91566
 Alpha virt. eigenvalues --    0.91566   1.02217   1.23383   1.24815   1.24815
 Alpha virt. eigenvalues --    1.38935   1.38935   1.45078   2.13906   2.35582

  Beta  occ. eigenvalues --  -24.72138  -1.12304  -0.42536  -0.42536  -0.33246
  Beta virt. eigenvalues --   -0.25438  -0.10220   0.25722   0.33734   0.93051
  Beta virt. eigenvalues --    0.93051   0.97226   1.06227   1.23128   1.24532
  Beta virt. eigenvalues --    1.24532   1.39671   1.39671   1.45711   2.14727

 Mulliken charges and spin densities:
               1          2
     1  H    0.009016  -0.908687
     2  H    0.005825   0.925512
     3  F   -0.014842   0.983176
 Sum of Mulliken charges =   0.00000   1.00000

 Dipole moment (field-independent basis, Debye):
    X=             -0.3160    Y=              0.0000    Z=             -0.0000  Tot=              0.3160
 Quadrupole moment (field-independent basis, Debye-Ang):
   XX=             -7.0529   YY=             -7.6956   ZZ=             -7.6956
   XY=             -0.0000   XZ=              0.0000   YZ=              0.0000

  Exact polarizability:      44.977      -0.000       2.014       0.000      -0.000       2.014
 Approx polarizability:      35.784      -0.000       1.928       0.000      -0.000       1.928

 ******    2 imaginary frequencies (negative Signs) ******

                      1                      2                      3
                      A                      A                      A
 Frequencies --  -1029.1359              -166.0662               396.5435
 Red. masses --      1.0079                 1.1084                 1.0137
 Frc consts  --      0.6290                 0.0180                 0.0939
 IR Inten    --     11.6646                11.3668                 0.0377

                      4
                      A
 Frequencies --    396.5435
 Red. masses --      1.0137
 Frc consts  --      0.0939
 IR Inten    --      0.0377

 - Thermochemistry -
 -------------------
 Temperature   298.150 Kelvin.  Pressure   1.00000 Atm.
 Atom     1 has atomic number  1 and mass   1.00783

 Molecular mass:    21.01405 amu.
 Principal axes and moments of inertia in atomic units:
                           1         2         3
     Eigenvalues --     0.00000 137.57614 137.57614
           X            1.00000  -0.00000   0.00000
           Y            0.00000   1.00000   0.00000
           Z            0.00000   0.00000   1.00000
 This molecule is a prolate symmetric top.
 Rotational symmetry number  1.
 Rotational temperature (Kelvin)      0.62957
 Rotational constant (GHZ):          13.118126
    2 imaginary frequencies ignored.
 Zero-point vibrational energy       4743.7 (Joules/Mol)
                                    1.13377 (Kcal/Mol)
 Warning -- explicit consideration of   2 degrees of freedom as
           vibrations may cause significant error
 Vibrational temperatures:    570.54   570.54
          (Kelvin)

 Zero-point correction=                           0.001807 (Hartree/Particle)
 Thermal correction to Energy=                    0.004793
 Thermal correction to Enthalpy=                  0.005737
 Thermal correction to Gibbs Free Energy=        -0.019267
 Sum of electronic and zero-point Energies=           -100.766475
 Sum of electronic and thermal Energies=              -100.763489
 Sum of electronic and thermal Enthalpies=            -100.762545
 Sum of electronic and thermal Free Energies=         -100.787549

                     E (Thermal)             CV                S
                      KCal/Mol        Cal/Mol-Kelvin    Cal/Mol-Kelvin
 Total                    3.007              7.923             52.625
 Electronic               0.000              0.000              1.377
 Translational            0.889              2.981             35.068
 Rotational               0.592              1.987             14.229
 Vibrational              1.526              2.955              1.951
 Vibration     1          0.763              1.478              0.975
 Vibration     2          0.763              1.478              0.975

 Normal termination of Gaussian 16 at Fri Aug 22 21:01:31 2025.
