 Gaussian 16, Revision C.01,
 Gaussian 16:  ES64L-G16RevC.01  3-Jul-2019

 -----------------------------------------
 # sp b3lyp/6-311g** Force nosymm scf=(qc)
 -----------------------------------------

 -------------------
 Title Card Required
 -------------------
 Symbolic Z-matrix:
 Charge =  0 Multiplicity = 2

                          Input orientation:
 ---------------------------------------------------------------------
 Center     Atomic      Atomic             Coordinates (Angstroms)
 Number     Number       Type             X           Y           Z
 ---------------------------------------------------------------------
      1          1           0        0.000000    0.000000    0.000000
      2          1           0       -1.900000    0.000000    0.000000
      3          9           0        1.550000    0.000000    0.000000
 ---------------------------------------------------------------------

 SCF Done:  E(UB3LYP) =  -100.853109227     a.u. after   13 cycles

 Alpha  occ. eigenvalues --  -24.64215  -1.10372  -0.44467  -0.37607  -0.36389
 Alpha  occ. eigenvalues --   -0.36389
 Alpha virt. eigenvalues --   -0.11439   0.22798   0.27977   0.94416   0.94416
 Alpha virt. eigenvalues --    0.97764   1.04772   1.19460   1.19460   1.34210
 Alpha virt. eigenvalues --    1.34210   1.35161   1.73676   2.10909   2.29235

  Beta  occ. eigenvalues --  -24.63154  -1.07536  -0.40991  -0.35375  -0.35375
  Beta virt. eigenvalues --   -0.19406  -0.07783   0.25689   0.31340   0.94217
  Beta virt. eigenvalues --    0.94217   1.01247   1.07177   1.28681   1.28681
  Beta virt. eigenvalues --    1.36699   1.36699   1.45664   1.74055   2.15232

 Mulliken charges and spin densities:
               1          2
     1  H    0.279561  -0.237844
     2  H    0.054425   0.905818
     3  F   -0.333986   0.332026
 Sum of Mulliken charges =   0.00000   1.00000

 Dipole moment (field-independent basis, Debye):
    X=             -3.0374    Y=              0.0000    Z=             -0.0000  Tot=              3.0374
 Quadrupole moment (field-independent basis, Debye-Ang):
   XX=             -8.7464   YY=             -7.3258   ZZ=             -7.3258
   XY=              0.0000   XZ=             -0.0000   YZ=              0.0000

  Exact polarizability:      33.439       0.000       2.214       0.000       0.000       2.214
 Approx polarizability:      45.930      -0.000       2.141       0.000       0.000       2.141

 ******    2 imaginary frequencies (negative Signs) ******

                      1                      2                      3
                      A                      A                      A
 Frequencies --  -2118.7511              -481.3827               946.3026
 Red. masses --      1.0337                 1.0789                 1.0206
 Frc consts  --      2.7339                 0.1473                 0.5385
 IR Inten    --     11.1981                 1.1045                52.9356

                      4
                      A
 Frequencies --    946.3026
 Red. masses --      1.0206
 Frc consts  --      0.5385
 IR Inten    --     52.9356

 - Thermochemistry -
 -------------------
 Temperature   298.150 Kelvin.  Pressure   1.00000 Atm.
 Atom     1 has atomic number  1 and mass   1.00783

 Molecular mass:    21.01405 amu.
 Principal axes and moments of inertia in atomic units:
                           1         2         3
     Eigenvalues --     0.00000  47.16864  47.16864
           X            1.00000  -0.00000   0.00000
           Y            0.00000   1.00000   0.00000
           Z            0.00000   0.00000   1.00000
 This molecule is a prolate symmetric top.
 Rotational symmetry number  1.
 Rotational temperature (Kelvin)      1.83626
 Rotational constant (GHZ):          38.261460
    2 imaginary frequencies ignored.
 Zero-point vibrational energy      11320.3 (Joules/Mol)
                                    2.70561 (Kcal/Mol)
 Vibrational temperatures:   1361.52  1361.52
          (Kelvin)

 Zero-point correction=                           0.004312 (Hartree/Particle)
 Thermal correction to Energy=                    0.006763
 Thermal correction to Enthalpy=                  0.007707
 Thermal correction to Gibbs Free Energy=        -0.015470
 Sum of electronic and zero-point Energies=           -100.848798
 Sum of electronic and thermal Energies=              -100.846347
 Sum of electronic and thermal Enthalpies=            -100.845402
 Sum of electronic and thermal Free Energies=         -100.868579

                     E (Thermal)             CV                S
                      KCal/Mol        Cal/Mol-Kelvin    Cal/Mol-Kelvin
 Total                    4.244              5.848             48.779
 Electronic               0.000              0.000              1.377
 Translational            0.889              2.981             35.068
 Rotational               0.592              1.987             12.102
 Vibrational              2.762              0.880              0.232

 Normal termination of Gaussian 16 at Fri Aug 22 16:28:11 2025.
