 Gaussian 16, Revision C.01,
 Gaussian 16:  ES64L-G16RevC.01  3-Jul-2019

 -----------------------------------------
 # sp b3lyp/6-311g** Force nosymm scf=(qc)
 -----------------------------------------

 -------------------
 Title Card Required
 -------------------
 Symbolic Z-matrix:
 Charge =  0 Multiplicity = 2

                          Input orientation:
 ---------------------------------------------------------------------
 Center     Atomic      Atomic             Coordinates (Angstroms)
 Number     Number       Type             X           Y           Z
 ---------------------------------------------------------------------
      1          1           0        0.000000    0.000000    0.000000
      2          1           0       -3.450000    0.000000    0.000000
      3          9           0        1.450000    0.000000    0.000000
 ---------------------------------------------------------------------

 SCF Done:  E(UB3LYP) =  -100.865836047     a.u. after    8 cycles

 Alpha  occ. eigenvalues --  -24.64352  -1.09951  -0.43872  -0.36551  -0.36551
 Alpha  occ. eigenvalues --   -0.34023
 Alpha virt. eigenvalues --   -0.13205   0.20581   0.27836   0.93287   0.93287
 Alpha virt. eigenvalues --    1.03520   1.12228   1.23490   1.23490   1.23549
 Alpha virt. eigenvalues --    1.31927   1.31927   1.72459   2.13497   2.19856

  Beta  occ. eigenvalues --  -24.64332  -1.09898  -0.43822  -0.36532  -0.36532
  Beta virt. eigenvalues --   -0.13560  -0.06574   0.23657   0.38190   0.93280
  Beta virt. eigenvalues --    0.93280   1.03574   1.12267   1.31843   1.31843
  Beta virt. eigenvalues --    1.45765   1.46234   1.46234   1.72461   2.19372

 Mulliken charges and spin densities:
               1          2
     1  H    0.352681  -0.004236
     2  H    0.002000   0.997868
     3  F   -0.354682   0.006369
 Sum of Mulliken charges =   0.00000   1.00000

 Dipole moment (field-independent basis, Debye):
    X=             -2.5723    Y=             -0.0000    Z=             -0.0000  Tot=              2.5723
 Quadrupole moment (field-independent basis, Debye-Ang):
   XX=             -9.6965   YY=             -7.2938   ZZ=             -7.2938
   XY=             -0.0000   XZ=             -0.0000   YZ=              0.0000

  Exact polarizability:      14.554      -0.000       2.210       0.000      -0.000       2.210
 Approx polarizability:      25.743       0.000       2.140      -0.000      -0.000       2.140

 ******    2 imaginary frequencies (negative Signs) ******

                      1                      2                      3
                      A                      A                      A
 Frequencies --  -1102.5375               -81.8626              1053.3951
 Red. masses --      1.0574                 1.0542                 1.0309
 Frc consts  --      0.7573                 0.0042                 0.6740
 IR Inten    --     49.4321                 0.2027               121.3209

                      4
                      A
 Frequencies --   1053.3951
 Red. masses --      1.0309
 Frc consts  --      0.6740
 IR Inten    --    121.3209

 - Thermochemistry -
 -------------------
 Temperature   298.150 Kelvin.  Pressure   1.00000 Atm.
 Atom     1 has atomic number  1 and mass   1.00783

 Molecular mass:    21.01405 amu.
 Principal axes and moments of inertia in atomic units:
                           1         2         3
     Eigenvalues --     0.00000  87.01917  87.01917
           X            1.00000  -0.00000   0.00000
           Y            0.00000   1.00000   0.00000
           Z            0.00000   0.00000   1.00000
 This molecule is a prolate symmetric top.
 Rotational symmetry number  1.
 Rotational temperature (Kelvin)      0.99534
 Rotational constant (GHZ):          20.739582
    2 imaginary frequencies ignored.
 Zero-point vibrational energy      12601.4 (Joules/Mol)
                                    3.01181 (Kcal/Mol)
 Vibrational temperatures:   1515.60  1515.60
          (Kelvin)

 Zero-point correction=                           0.004800 (Hartree/Particle)
 Thermal correction to Energy=                    0.007220
 Thermal correction to Enthalpy=                  0.008164
 Thermal correction to Gibbs Free Energy=        -0.015552
 Sum of electronic and zero-point Energies=           -100.861036
 Sum of electronic and thermal Energies=              -100.858616
 Sum of electronic and thermal Enthalpies=            -100.857672
 Sum of electronic and thermal Free Energies=         -100.881388

                     E (Thermal)             CV                S
                      KCal/Mol        Cal/Mol-Kelvin    Cal/Mol-Kelvin
 Total                    4.531              5.613             49.915
 Electronic               0.000              0.000              1.377
 Translational            0.889              2.981             35.068
 Rotational               0.592              1.987             13.319
 Vibrational              3.049              0.645              0.151

 Normal termination of Gaussian 16 at Fri Aug 22 16:23:50 2025.
