 Gaussian 16, Revision C.01,
 Gaussian 16:  ES64L-G16RevC.01  3-Jul-2019

 -----------------------------------------
 # sp b3lyp/6-311g** Force nosymm scf=(qc)
 -----------------------------------------

 -------------------
 Title Card Required
 -------------------
 Symbolic Z-matrix:
 Charge =  0 Multiplicity = 2

                          Input orientation:
 ---------------------------------------------------------------------
 Center     Atomic      Atomic             Coordinates (Angstroms)
 Number     Number       Type             X           Y           Z
 ---------------------------------------------------------------------
      1          1           0        0.000000    0.000000    0.000000
      2          1           0       -1.400000    0.000000    0.000000
      3          9           0        0.900000    0.000000    0.000000
 ---------------------------------------------------------------------

 SCF Done:  E(UB3LYP) =  -100.968551385     a.u. after    6 cycles

 Alpha  occ. eigenvalues --  -24.63613  -1.19027  -0.55415  -0.39415  -0.39415
 Alpha  occ. eigenvalues --   -0.36800
 Alpha virt. eigenvalues --    0.11352   0.20614   0.40472   0.93966   0.93966
 Alpha virt. eigenvalues --    0.97744   1.14017   1.14017   1.27219   1.45207
 Alpha virt. eigenvalues --    1.45207   1.54328   2.09434   2.23782   2.69876

  Beta  occ. eigenvalues --  -24.63334  -1.18318  -0.53547  -0.39176  -0.39176
  Beta virt. eigenvalues --   -0.15293   0.13175   0.26504   0.44769   0.94288
  Beta virt. eigenvalues --    0.94288   0.98322   1.24160   1.24160   1.34570
  Beta virt. eigenvalues --    1.50813   1.50813   1.58827   2.18650   2.32192

 Mulliken charges and spin densities:
               1          2
     1  H    0.273075   0.004602
     2  H    0.026021   0.929065
     3  F   -0.299097   0.066334
 Sum of Mulliken charges =   0.00000   1.00000

 Dipole moment (field-independent basis, Debye):
    X=             -2.0576    Y=             -0.0000    Z=              0.0000  Tot=              2.0576
 Quadrupole moment (field-independent basis, Debye-Ang):
   XX=             -7.4871   YY=             -6.7316   ZZ=             -6.7316
   XY=             -0.0000   XZ=              0.0000   YZ=              0.0000

  Exact polarizability:      10.956      -0.000       2.551      -0.000       0.000       2.551
 Approx polarizability:      11.465       0.000       2.558      -0.000       0.000       2.558

 ******    2 imaginary frequencies (negative Signs) ******

                      1                      2                      3
                      A                      A                      A
 Frequencies --   -795.5602              -795.5602               701.5123
 Red. masses --      1.0241                 1.0241                 1.0514
 Frc consts  --      0.3819                 0.3819                 0.3048
 IR Inten    --    108.7092               108.7092                 2.3706

                      4
                      A
 Frequencies --   4269.1885
 Red. masses --      1.0602
 Frc consts  --     11.3849
 IR Inten    --    180.8598

 - Thermochemistry -
 -------------------
 Temperature   298.150 Kelvin.  Pressure   1.00000 Atm.
 Atom     1 has atomic number  1 and mass   1.00783

 Molecular mass:    21.01405 amu.
 Principal axes and moments of inertia in atomic units:
                           1         2         3
     Eigenvalues --     0.00000  20.18646  20.18646
           X            1.00000  -0.00000   0.00000
           Y            0.00000   1.00000   0.00000
           Z            0.00000   0.00000   1.00000
 This molecule is a prolate symmetric top.
 Rotational symmetry number  1.
 Rotational temperature (Kelvin)      4.29069
 Rotational constant (GHZ):          89.403563
    2 imaginary frequencies ignored.
 Zero-point vibrational energy      29731.4 (Joules/Mol)
                                    7.10597 (Kcal/Mol)
 Vibrational temperatures:   1009.32  6142.41
          (Kelvin)

 Zero-point correction=                           0.011324 (Hartree/Particle)
 Thermal correction to Energy=                    0.013797
 Thermal correction to Enthalpy=                  0.014741
 Thermal correction to Gibbs Free Energy=        -0.007669
 Sum of electronic and zero-point Energies=           -100.957227
 Sum of electronic and thermal Energies=              -100.954755
 Sum of electronic and thermal Enthalpies=            -100.953811
 Sum of electronic and thermal Free Energies=         -100.976220

                     E (Thermal)             CV                S
                      KCal/Mol        Cal/Mol-Kelvin    Cal/Mol-Kelvin
 Total                    8.657              5.794             47.165
 Electronic               0.000              0.000              1.377
 Translational            0.889              2.981             35.068
 Rotational               0.592              1.987             10.415
 Vibrational              7.176              0.826              0.304

 Normal termination of Gaussian 16 at Fri Aug 22 15:55:24 2025.
