 Gaussian 16, Revision C.01,
 Gaussian 16:  ES64L-G16RevC.01  3-Jul-2019

 -----------------------------------------
 # sp b3lyp/6-311g** Force nosymm scf=(qc)
 -----------------------------------------

 -------------------
 Title Card Required
 -------------------
 Symbolic Z-matrix:
 Charge =  0 Multiplicity = 2

                          Input orientation:
 ---------------------------------------------------------------------
 Center     Atomic      Atomic             Coordinates (Angstroms)
 Number     Number       Type             X           Y           Z
 ---------------------------------------------------------------------
      1          1           0        0.000000    0.000000    0.000000
      2          1           0       -0.600000    0.000000    0.000000
      3          9           0        2.500000    0.000000    0.000000
 ---------------------------------------------------------------------

 SCF Done:  E(UB3LYP) =  -100.915158453     a.u. after   38 cycles

 Alpha  occ. eigenvalues --  -24.76846  -1.22624  -0.55800  -0.47833  -0.46947
 Alpha  occ. eigenvalues --   -0.45444
 Alpha virt. eigenvalues --    0.09709   0.19740   0.53183   0.85664   0.90525
 Alpha virt. eigenvalues --    0.93622   1.10580   1.10604   1.12984   1.61103
 Alpha virt. eigenvalues --    1.82830   1.93127   1.93151   2.39576   3.64453

  Beta  occ. eigenvalues --  -24.73681  -1.13530  -0.46703  -0.43774  -0.43398
  Beta virt. eigenvalues --   -0.26411   0.09814   0.19816   0.53286   0.92019
  Beta virt. eigenvalues --    0.95097   0.95513   1.10595   1.10605   1.16540
  Beta virt. eigenvalues --    1.61109   1.82837   1.93127   1.93149   2.39594

 Mulliken charges and spin densities:
               1          2
     1  H   -0.010750  -0.002489
     2  H   -0.005020   0.000067
     3  F    0.015770   1.002421
 Sum of Mulliken charges =   0.00000   1.00000

 Dipole moment (field-independent basis, Debye):
    X=              0.1440    Y=              0.0000    Z=              0.0000  Tot=              0.1440
 Quadrupole moment (field-independent basis, Debye-Ang):
   XX=             -5.9825   YY=             -6.0284   ZZ=             -6.6070
   XY=              0.0000   XZ=              0.0000   YZ=              0.3202

  Exact polarizability:       7.025      -0.000       2.272       0.000       0.163       1.978
 Approx polarizability:       7.508      -0.000       2.456      -0.000       0.207       2.082

 ******    2 imaginary frequencies (negative Signs) ******

                      1                      2                      3
                      A                      A                      A
 Frequencies --  -2755.5755             -2746.7222               216.0766
 Red. masses --      1.0090                 1.0090                 1.1085
 Frc consts  --      4.5139                 4.4850                 0.0305
 IR Inten    --      0.0827                 0.0916                 0.4285

                      4
                      A
 Frequencies --   7042.9294
 Red. masses --      1.0078
 Frc consts  --     29.4538
 IR Inten    --      2.4548

 - Thermochemistry -
 -------------------
 Temperature   298.150 Kelvin.  Pressure   1.00000 Atm.
 Atom     1 has atomic number  1 and mass   1.00783

 Molecular mass:    21.01405 amu.
 Principal axes and moments of inertia in atomic units:
                           1         2         3
     Eigenvalues --     0.00000  51.66732  51.66732
           X            1.00000  -0.00000   0.00000
           Y            0.00000   1.00000   0.00000
           Z            0.00000   0.00000   1.00000
 This molecule is a prolate symmetric top.
 Rotational symmetry number  1.
 Rotational temperature (Kelvin)      1.67638
 Rotational constant (GHZ):          34.930031
    2 imaginary frequencies ignored.
 Zero-point vibrational energy      43418.5 (Joules/Mol)
                                   10.37727 (Kcal/Mol)
 Warning -- explicit consideration of   1 degrees of freedom as
           vibrations may cause significant error
 Vibrational temperatures:    310.89 10133.20
          (Kelvin)

 Zero-point correction=                           0.016537 (Hartree/Particle)
 Thermal correction to Energy=                    0.019434
 Thermal correction to Enthalpy=                  0.020378
 Thermal correction to Gibbs Free Energy=        -0.003721
 Sum of electronic and zero-point Energies=           -100.898621
 Sum of electronic and thermal Energies=              -100.895725
 Sum of electronic and thermal Enthalpies=            -100.894781
 Sum of electronic and thermal Free Energies=         -100.918879

                     E (Thermal)             CV                S
                      KCal/Mol        Cal/Mol-Kelvin    Cal/Mol-Kelvin
 Total                   12.195              6.785             50.720
 Electronic               0.000              0.000              1.377
 Translational            0.889              2.981             35.068
 Rotational               0.592              1.987             12.283
 Vibrational             10.714              1.817              1.992
 Vibration     1          0.645              1.817              1.992

 Normal termination of Gaussian 16 at Fri Aug 22 17:41:04 2025.
