 Gaussian 16, Revision C.01,
 Gaussian 16:  ES64L-G16RevC.01  3-Jul-2019

 -----------------------------------------
 # sp b3lyp/6-311g** Force nosymm scf=(qc)
 -----------------------------------------

 -------------------
 Title Card Required
 -------------------
 Symbolic Z-matrix:
 Charge =  0 Multiplicity = 2

                          Input orientation:
 ---------------------------------------------------------------------
 Center     Atomic      Atomic             Coordinates (Angstroms)
 Number     Number       Type             X           Y           Z
 ---------------------------------------------------------------------
      1          1           0        0.000000    0.000000    0.000000
      2          1           0       -1.450000    0.000000    0.000000
      3          9           0        2.800000    0.000000    0.000000
 ---------------------------------------------------------------------

 SCF Done:  E(UB3LYP) =  -100.829056693     a.u. after   42 cycles

 Alpha  occ. eigenvalues --  -24.75081  -1.21074  -0.54230  -0.45535  -0.45531
 Alpha  occ. eigenvalues --   -0.35088
 Alpha virt. eigenvalues --   -0.09719   0.24039   0.30783   0.89610   0.91598
 Alpha virt. eigenvalues --    0.91744   1.05249   1.08620   1.18028   1.18028
 Alpha virt. eigenvalues --    1.42177   1.42177   1.85226   2.22961   2.48496

  Beta  occ. eigenvalues --  -24.72013  -1.12271  -0.42465  -0.42459  -0.34836
  Beta virt. eigenvalues --   -0.25677  -0.09325   0.24422   0.31168   0.93061
  Beta virt. eigenvalues --    0.93097   0.98130   1.07646   1.10885   1.18304
  Beta virt. eigenvalues --    1.18304   1.42418   1.42418   1.85600   2.23487

 Mulliken charges and spin densities:
               1          2
     1  H    0.000007  -0.151193
     2  H    0.022126   0.179618
     3  F   -0.022133   0.971575
 Sum of Mulliken charges =   0.00000   1.00000

 Dipole moment (field-independent basis, Debye):
    X=             -0.4682    Y=              0.0008    Z=             -0.0001  Tot=              0.4682
 Quadrupole moment (field-independent basis, Debye-Ang):
   XX=             -6.1751   YY=             -7.6717   ZZ=             -7.6922
   XY=              0.1301   XZ=             -0.0125   YZ=             -0.0020

  Exact polarizability:      58.223       0.302       2.068       0.030      -0.001       2.035
 Approx polarizability:      66.649       0.034       2.062      -0.003      -0.001       2.048

 ******    2 imaginary frequencies (negative Signs) ******

                      1                      2                      3
                      A                      A                      A
 Frequencies --  -1764.4211              -204.1769              1234.8490
 Red. masses --      1.0083                 1.1080                 1.0119
 Frc consts  --      1.8494                 0.0272                 0.9091
 IR Inten    --    756.9235                21.0321                 2.3568

                      4
                      A
 Frequencies --   1241.3645
 Red. masses --      1.0119
 Frc consts  --      0.9188
 IR Inten    --      0.1120

 - Thermochemistry -
 -------------------
 Temperature   298.150 Kelvin.  Pressure   1.00000 Atm.
 Atom     1 has atomic number  1 and mass   1.00783

 Molecular mass:    21.01405 amu.
 Principal axes and moments of inertia in atomic units:
                           1         2         3
     Eigenvalues --     0.00000  84.64432  84.64432
           X            1.00000  -0.00000   0.00000
           Y            0.00000   1.00000   0.00000
           Z            0.00000   0.00000   1.00000
 This molecule is a prolate symmetric top.
 Rotational symmetry number  1.
 Rotational temperature (Kelvin)      1.02327
 Rotational constant (GHZ):          21.321468
    2 imaginary frequencies ignored.
 Zero-point vibrational energy      14811.0 (Joules/Mol)
                                    3.53992 (Kcal/Mol)
 Vibrational temperatures:   1776.67  1786.05
          (Kelvin)

 Zero-point correction=                           0.005641 (Hartree/Particle)
 Thermal correction to Energy=                    0.008030
 Thermal correction to Enthalpy=                  0.008975
 Thermal correction to Gibbs Free Energy=        -0.014677
 Sum of electronic and zero-point Energies=           -100.823415
 Sum of electronic and thermal Energies=              -100.821026
 Sum of electronic and thermal Enthalpies=            -100.820082
 Sum of electronic and thermal Free Energies=         -100.843734

                     E (Thermal)             CV                S
                      KCal/Mol        Cal/Mol-Kelvin    Cal/Mol-Kelvin
 Total                    5.039              5.331             49.780
 Electronic               0.000              0.000              1.377
 Translational            0.889              2.981             35.068
 Rotational               0.592              1.987             13.264
 Vibrational              3.558              0.363              0.071

 Normal termination of Gaussian 16 at Fri Aug 22 18:42:15 2025.
