 Gaussian 16, Revision C.01,
 Gaussian 16:  ES64L-G16RevC.01  3-Jul-2019

 -----------------------------------------
 # sp b3lyp/6-311g** Force nosymm scf=(qc)
 -----------------------------------------

 -------------------
 Title Card Required
 -------------------
 Symbolic Z-matrix:
 Charge =  0 Multiplicity = 2

                          Input orientation:
 ---------------------------------------------------------------------
 Center     Atomic      Atomic             Coordinates (Angstroms)
 Number     Number       Type             X           Y           Z
 ---------------------------------------------------------------------
      1          1           0        0.000000    0.000000    0.000000
      2          1           0       -1.600000    0.000000    0.000000
      3          9           0        1.250000    0.000000    0.000000
 ---------------------------------------------------------------------

 SCF Done:  E(UB3LYP) =  -100.920453681     a.u. after    9 cycles

 Alpha  occ. eigenvalues --  -24.63451  -1.11333  -0.48355  -0.37640  -0.36622
 Alpha  occ. eigenvalues --   -0.36622
 Alpha virt. eigenvalues --   -0.01705   0.21292   0.28883   0.93642   0.93642
 Alpha virt. eigenvalues --    1.01664   1.05425   1.16682   1.16682   1.38774
 Alpha virt. eigenvalues --    1.38774   1.52534   1.80676   2.20487   2.37413

  Beta  occ. eigenvalues --  -24.62938  -1.10024  -0.45507  -0.36150  -0.36150
  Beta virt. eigenvalues --   -0.18446   0.01857   0.25718   0.31874   0.93715
  Beta virt. eigenvalues --    0.93715   1.02938   1.12814   1.27254   1.27254
  Beta virt. eigenvalues --    1.42533   1.42533   1.56051   1.87353   2.28024

 Mulliken charges and spin densities:
               1          2
     1  H    0.310123  -0.049138
     2  H    0.052991   0.896082
     3  F   -0.363114   0.153056
 Sum of Mulliken charges =   0.00000   1.00000

 Dipole moment (field-independent basis, Debye):
    X=             -2.7925    Y=              0.0000    Z=              0.0000  Tot=              2.7925
 Quadrupole moment (field-independent basis, Debye-Ang):
   XX=             -8.0987   YY=             -7.0546   ZZ=             -7.0546
   XY=              0.0000   XZ=              0.0000   YZ=             -0.0000

  Exact polarizability:      20.849      -0.000       2.403      -0.000       0.000       2.403
 Approx polarizability:      26.575      -0.000       2.369      -0.000       0.000       2.369

 ******    1 imaginary frequencies (negative Signs) ******

                      1                      2                      3
                      A                      A                      A
 Frequencies --  -1578.9563               404.8046              1122.9834
 Red. masses --      1.0184                 1.0959                 1.0212
 Frc consts  --      1.4960                 0.1058                 0.7588
 IR Inten    --     92.8507                24.9707                71.2505

                      4
                      A
 Frequencies --   1122.9834
 Red. masses --      1.0212
 Frc consts  --      0.7588
 IR Inten    --     71.2505

 - Thermochemistry -
 -------------------
 Temperature   298.150 Kelvin.  Pressure   1.00000 Atm.
 Atom     1 has atomic number  1 and mass   1.00783

 Molecular mass:    21.01405 amu.
 Principal axes and moments of inertia in atomic units:
                           1         2         3
     Eigenvalues --     0.00000  31.95488  31.95488
           X            1.00000  -0.00000   0.00000
           Y            0.00000   1.00000   0.00000
           Z            0.00000   0.00000   1.00000
 This molecule is a prolate symmetric top.
 Rotational symmetry number  1.
 Rotational temperature (Kelvin)      2.71051
 Rotational constant (GHZ):          56.477804
    1 imaginary frequencies ignored.
 Zero-point vibrational energy      15855.1 (Joules/Mol)
                                    3.78947 (Kcal/Mol)
 Warning -- explicit consideration of   1 degrees of freedom as
           vibrations may cause significant error
 Vibrational temperatures:    582.42  1615.72  1615.72
          (Kelvin)

 Zero-point correction=                           0.006039 (Hartree/Particle)
 Thermal correction to Energy=                    0.008750
 Thermal correction to Enthalpy=                  0.009694
 Thermal correction to Gibbs Free Energy=        -0.013508
 Sum of electronic and zero-point Energies=           -100.914415
 Sum of electronic and thermal Energies=              -100.911704
 Sum of electronic and thermal Enthalpies=            -100.910760
 Sum of electronic and thermal Free Energies=         -100.933962

                     E (Thermal)             CV                S
                      KCal/Mol        Cal/Mol-Kelvin    Cal/Mol-Kelvin
 Total                    5.490              6.950             48.832
 Electronic               0.000              0.000              1.377
 Translational            0.889              2.981             35.068
 Rotational               0.592              1.987             11.328
 Vibrational              4.009              1.982              1.059
 Vibration     1          0.770              1.460              0.945

 Normal termination of Gaussian 16 at Fri Aug 22 16:12:18 2025.
