 Gaussian 16, Revision C.01,
 Gaussian 16:  ES64L-G16RevC.01  3-Jul-2019

 -----------------------------------------
 # sp b3lyp/6-311g** Force nosymm scf=(qc)
 -----------------------------------------

 -------------------
 Title Card Required
 -------------------
 Symbolic Z-matrix:
 Charge =  0 Multiplicity = 2

                          Input orientation:
 ---------------------------------------------------------------------
 Center     Atomic      Atomic             Coordinates (Angstroms)
 Number     Number       Type             X           Y           Z
 ---------------------------------------------------------------------
      1          1           0        0.000000    0.000000    0.000000
      2          1           0       -0.500000    0.000000    0.000000
      3          9           0        1.700000    0.000000    0.000000
 ---------------------------------------------------------------------

 SCF Done:  E(UB3LYP) =  -100.859341878     a.u. after    6 cycles

 Alpha  occ. eigenvalues --  -24.74172  -1.20600  -0.57787  -0.47872  -0.44977
 Alpha  occ. eigenvalues --   -0.44977
 Alpha virt. eigenvalues --    0.12283   0.19718   0.53397   0.89276   0.89276
 Alpha virt. eigenvalues --    0.95776   1.12009   1.12009   1.26948   1.67974
 Alpha virt. eigenvalues --    1.84686   1.99116   1.99116   2.50990   3.69300

  Beta  occ. eigenvalues --  -24.71162  -1.12135  -0.51816  -0.42003  -0.42003
  Beta virt. eigenvalues --   -0.24527   0.12807   0.20366   0.54805   0.90564
  Beta virt. eigenvalues --    0.90564   1.02938   1.13005   1.13005   1.30609
  Beta virt. eigenvalues --    1.69711   1.85435   1.99514   1.99514   2.52340

 Mulliken charges and spin densities:
               1          2
     1  H    0.046343  -0.023664
     2  H    0.010014   0.094557
     3  F   -0.056357   0.929107
 Sum of Mulliken charges =   0.00000   1.00000

 Dipole moment (field-independent basis, Debye):
    X=             -0.4670    Y=              0.0000    Z=              0.0000  Tot=              0.4670
 Quadrupole moment (field-independent basis, Debye-Ang):
   XX=             -6.1004   YY=             -6.5263   ZZ=             -6.5263
   XY=              0.0000   XZ=             -0.0000   YZ=             -0.0000

  Exact polarizability:      11.772      -0.000       2.086       0.000      -0.000       2.086
 Approx polarizability:      12.701      -0.000       2.155      -0.000      -0.000       2.155

 ******    2 imaginary frequencies (negative Signs) ******

                      1                      2                      3
                      A                      A                      A
 Frequencies --  -4875.2885             -4875.2885               447.2369
 Red. masses --      1.0095                 1.0095                 1.1085
 Frc consts  --     14.1365                14.1365                 0.1306
 IR Inten    --      0.3657                 0.3657                30.3154

                      4
                      A
 Frequencies --   9905.7954
 Red. masses --      1.0078
 Frc consts  --     58.2659
 IR Inten    --    235.9332

 - Thermochemistry -
 -------------------
 Temperature   298.150 Kelvin.  Pressure   1.00000 Atm.
 Atom     1 has atomic number  1 and mass   1.00783

 Molecular mass:    21.01405 amu.
 Principal axes and moments of inertia in atomic units:
                           1         2         3
     Eigenvalues --     0.00000  25.19498  25.19498
           X            1.00000  -0.00000   0.00000
           Y            0.00000   1.00000   0.00000
           Z            0.00000   0.00000   1.00000
 This molecule is a prolate symmetric top.
 Rotational symmetry number  1.
 Rotational temperature (Kelvin)      3.43774
 Rotational constant (GHZ):          71.630970
    2 imaginary frequencies ignored.
 Zero-point vibrational energy      61924.9 (Joules/Mol)
                                   14.80040 (Kcal/Mol)
 Warning -- explicit consideration of   1 degrees of freedom as
           vibrations may cause significant error
 Vibrational temperatures:    643.47 14252.23
          (Kelvin)

 Zero-point correction=                           0.023586 (Hartree/Particle)
 Thermal correction to Energy=                    0.026213
 Thermal correction to Enthalpy=                  0.027157
 Thermal correction to Gibbs Free Energy=         0.004300
 Sum of electronic and zero-point Energies=           -100.835756
 Sum of electronic and thermal Energies=              -100.833129
 Sum of electronic and thermal Enthalpies=            -100.832185
 Sum of electronic and thermal Free Energies=         -100.855041

                     E (Thermal)             CV                S
                      KCal/Mol        Cal/Mol-Kelvin    Cal/Mol-Kelvin
 Total                   16.449              6.335             48.105
 Electronic               0.000              0.000              1.377
 Translational            0.889              2.981             35.068
 Rotational               0.592              1.987             10.856
 Vibrational             14.967              1.367              0.804
 Vibration     1          0.806              1.367              0.804

 Normal termination of Gaussian 16 at Fri Aug 22 16:36:08 2025.
