 Gaussian 16, Revision C.01,
 Gaussian 16:  ES64L-G16RevC.01  3-Jul-2019

 -----------------------------------------
 # sp b3lyp/6-311g** Force nosymm scf=(qc)
 -----------------------------------------

 -------------------
 Title Card Required
 -------------------
 Symbolic Z-matrix:
 Charge =  0 Multiplicity = 2

                          Input orientation:
 ---------------------------------------------------------------------
 Center     Atomic      Atomic             Coordinates (Angstroms)
 Number     Number       Type             X           Y           Z
 ---------------------------------------------------------------------
      1          1           0        0.000000    0.000000    0.000000
      2          1           0       -3.250000    0.000000    0.000000
      3          9           0        1.000000    0.000000    0.000000
 ---------------------------------------------------------------------

 SCF Done:  E(UB3LYP) =  -100.966192601     a.u. after    6 cycles

 Alpha  occ. eigenvalues --  -24.64174  -1.16049  -0.51647  -0.38794  -0.38794
 Alpha  occ. eigenvalues --   -0.33928
 Alpha virt. eigenvalues --    0.00674   0.24325   0.34458   0.94047   0.94047
 Alpha virt. eigenvalues --    0.98582   1.23356   1.23593   1.23593   1.30282
 Alpha virt. eigenvalues --    1.35937   1.35937   1.90370   2.14320   2.33993

  Beta  occ. eigenvalues --  -24.64170  -1.16040  -0.51637  -0.38791  -0.38791
  Beta virt. eigenvalues --   -0.06664   0.01599   0.33772   0.38999   0.94048
  Beta virt. eigenvalues --    0.94048   0.98583   1.29733   1.35934   1.35934
  Beta virt. eigenvalues --    1.49390   1.49390   1.49563   1.90420   2.33936

 Mulliken charges and spin densities:
               1          2
     1  H    0.319261   0.000847
     2  H    0.001654   0.997975
     3  F   -0.320915   0.001178
 Sum of Mulliken charges =   0.00000   1.00000

 Dipole moment (field-independent basis, Debye):
    X=             -2.0482    Y=              0.0000    Z=              0.0000  Tot=              2.0482
 Quadrupole moment (field-independent basis, Debye-Ang):
   XX=             -8.1799   YY=             -6.9618   ZZ=             -6.9618
   XY=              0.0000   XZ=              0.0000   YZ=             -0.0000

  Exact polarizability:       7.044       0.000       2.402      -0.000      -0.000       2.402
 Approx polarizability:       8.517      -0.000       2.376      -0.000       0.000       2.376

 ******    1 imaginary frequencies (negative Signs) ******

                      1                      2                      3
                      A                      A                      A
 Frequencies --    -59.9053               980.5570               980.5570
 Red. masses --      1.0532                 1.0358                 1.0358
 Frc consts  --      0.0022                 0.5868                 0.5868
 IR Inten    --      0.1186               166.7104               166.7104

                      4
                      A
 Frequencies --   3025.7049
 Red. masses --      1.0584
 Frc consts  --      5.7088
 IR Inten    --     93.7494

 - Thermochemistry -
 -------------------
 Temperature   298.150 Kelvin.  Pressure   1.00000 Atm.
 Atom     1 has atomic number  1 and mass   1.00783

 Molecular mass:    21.01405 amu.
 Principal axes and moments of inertia in atomic units:
                           1         2         3
     Eigenvalues --     0.00000  63.84862  63.84862
           X            1.00000  -0.00000   0.00000
           Y            0.00000   1.00000   0.00000
           Z            0.00000   0.00000   1.00000
 This molecule is a prolate symmetric top.
 Rotational symmetry number  1.
 Rotational temperature (Kelvin)      1.35655
 Rotational constant (GHZ):          28.265938
    1 imaginary frequencies ignored.
 Zero-point vibrational energy      29827.8 (Joules/Mol)
                                    7.12902 (Kcal/Mol)
 Vibrational temperatures:   1410.80  1410.80  4353.31
          (Kelvin)

 Zero-point correction=                           0.011361 (Hartree/Particle)
 Thermal correction to Energy=                    0.013801
 Thermal correction to Enthalpy=                  0.014745
 Thermal correction to Gibbs Free Energy=        -0.008704
 Sum of electronic and zero-point Energies=           -100.954832
 Sum of electronic and thermal Energies=              -100.952392
 Sum of electronic and thermal Enthalpies=            -100.951448
 Sum of electronic and thermal Free Energies=         -100.974896

                     E (Thermal)             CV                S
                      KCal/Mol        Cal/Mol-Kelvin    Cal/Mol-Kelvin
 Total                    8.660              5.766             49.351
 Electronic               0.000              0.000              1.377
 Translational            0.889              2.981             35.068
 Rotational               0.592              1.987             12.704
 Vibrational              7.179              0.798              0.202

 Normal termination of Gaussian 16 at Fri Aug 22 16:01:23 2025.
