 Gaussian 16, Revision C.01,
 Gaussian 16:  ES64L-G16RevC.01  3-Jul-2019

 -----------------------------------------
 # sp b3lyp/6-311g** Force nosymm scf=(qc)
 -----------------------------------------

 -------------------
 Title Card Required
 -------------------
 Symbolic Z-matrix:
 Charge =  0 Multiplicity = 2

                          Input orientation:
 ---------------------------------------------------------------------
 Center     Atomic      Atomic             Coordinates (Angstroms)
 Number     Number       Type             X           Y           Z
 ---------------------------------------------------------------------
      1          1           0        0.000000    0.000000    0.000000
      2          1           0       -2.500000    0.000000    0.000000
      3          9           0        3.150000    0.000000    0.000000
 ---------------------------------------------------------------------

 SCF Done:  E(UB3LYP) =  -100.764014633     a.u. after   23 cycles

 Alpha  occ. eigenvalues --  -24.74653  -1.20668  -0.53771  -0.45149  -0.45149
 Alpha  occ. eigenvalues --   -0.32924
 Alpha virt. eigenvalues --   -0.10113   0.25480   0.33765   0.88941   0.91932
 Alpha virt. eigenvalues --    0.91932   1.03110   1.24728   1.24728   1.26461
 Alpha virt. eigenvalues --    1.40453   1.40453   1.42127   2.15505   2.36713

  Beta  occ. eigenvalues --  -24.71588  -1.11876  -0.42080  -0.42080  -0.33489
  Beta virt. eigenvalues --   -0.25107  -0.09180   0.25463   0.34909   0.93406
  Beta virt. eigenvalues --    0.93406   0.97862   1.07051   1.24041   1.24041
  Beta virt. eigenvalues --    1.25600   1.41948   1.41948   1.43603   2.16435

 Mulliken charges and spin densities:
               1          2
     1  H    0.021404  -0.941628
     2  H    0.004393   0.970363
     3  F   -0.025797   0.971264
 Sum of Mulliken charges =  -0.00000   1.00000

 Dipole moment (field-independent basis, Debye):
    X=             -0.4695    Y=              0.0000    Z=             -0.0000  Tot=              0.4695
 Quadrupole moment (field-independent basis, Debye-Ang):
   XX=             -7.6587   YY=             -7.6579   ZZ=             -7.6579
   XY=              0.0000   XZ=             -0.0000   YZ=              0.0000

  Exact polarizability:      41.940       0.000       2.016      -0.000       0.000       2.016
 Approx polarizability:      35.381       0.000       1.924      -0.000      -0.000       1.924

 ******    2 imaginary frequencies (negative Signs) ******

                      1                      2                      3
                      A                      A                      A
 Frequencies --   -689.2113              -202.1717               256.0485
 Red. masses --      1.0089                 1.1072                 1.0154
 Frc consts  --      0.2824                 0.0267                 0.0392
 IR Inten    --     16.6616                15.2766                 0.3439

                      4
                      A
 Frequencies --    256.0485
 Red. masses --      1.0154
 Frc consts  --      0.0392
 IR Inten    --      0.3439

 - Thermochemistry -
 -------------------
 Temperature   298.150 Kelvin.  Pressure   1.00000 Atm.
 Atom     1 has atomic number  1 and mass   1.00783

 Molecular mass:    21.01405 amu.
 Principal axes and moments of inertia in atomic units:
                           1         2         3
     Eigenvalues --     0.00000 137.23383 137.23383
           X            1.00000  -0.00000   0.00000
           Y            0.00000   1.00000   0.00000
           Z            0.00000   0.00000   1.00000
 This molecule is a prolate symmetric top.
 Rotational symmetry number  1.
 Rotational temperature (Kelvin)      0.63114
 Rotational constant (GHZ):          13.150847
    2 imaginary frequencies ignored.
 Zero-point vibrational energy       3063.0 (Joules/Mol)
                                    0.73208 (Kcal/Mol)
 Warning -- explicit consideration of   2 degrees of freedom as
           vibrations may cause significant error
 Vibrational temperatures:    368.40   368.40
          (Kelvin)

 Zero-point correction=                           0.001167 (Hartree/Particle)
 Thermal correction to Energy=                    0.004483
 Thermal correction to Enthalpy=                  0.005427
 Thermal correction to Gibbs Free Energy=        -0.020252
 Sum of electronic and zero-point Energies=           -100.762848
 Sum of electronic and thermal Energies=              -100.759531
 Sum of electronic and thermal Enthalpies=            -100.758587
 Sum of electronic and thermal Free Energies=         -100.784267

                     E (Thermal)             CV                S
                      KCal/Mol        Cal/Mol-Kelvin    Cal/Mol-Kelvin
 Total                    2.813              8.473             54.047
 Electronic               0.000              0.000              1.377
 Translational            0.889              2.981             35.068
 Rotational               0.592              1.987             14.224
 Vibrational              1.332              3.505              3.377
 Vibration     1          0.666              1.753              1.689
 Vibration     2          0.666              1.753              1.689

 Normal termination of Gaussian 16 at Fri Aug 22 20:10:36 2025.
