 Gaussian 16, Revision C.01,
 Gaussian 16:  ES64L-G16RevC.01  3-Jul-2019

 -----------------------------------------
 # sp b3lyp/6-311g** Force nosymm scf=(qc)
 -----------------------------------------

 -------------------
 Title Card Required
 -------------------
 Symbolic Z-matrix:
 Charge =  0 Multiplicity = 2

                          Input orientation:
 ---------------------------------------------------------------------
 Center     Atomic      Atomic             Coordinates (Angstroms)
 Number     Number       Type             X           Y           Z
 ---------------------------------------------------------------------
      1          1           0        0.000000    0.000000    0.000000
      2          1           0       -1.600000    0.000000    0.000000
      3          9           0        2.500000    0.000000    0.000000
 ---------------------------------------------------------------------

 SCF Done:  E(UB3LYP) =  -100.811078451     a.u. after   19 cycles

 Alpha  occ. eigenvalues --  -24.72870  -1.19016  -0.52032  -0.43665  -0.43665
 Alpha  occ. eigenvalues --   -0.35664
 Alpha virt. eigenvalues --   -0.11588   0.23978   0.30958   0.89005   0.92916
 Alpha virt. eigenvalues --    0.92916   1.03116   1.13619   1.19974   1.19974
 Alpha virt. eigenvalues --    1.37388   1.37388   1.72364   2.17069   2.43359

  Beta  occ. eigenvalues --  -24.69957  -1.10704  -0.40757  -0.40757  -0.35248
  Beta virt. eigenvalues --   -0.24518  -0.10903   0.25453   0.30729   0.94310
  Beta virt. eigenvalues --    0.94310   0.95362   1.05890   1.17258   1.20603
  Beta virt. eigenvalues --    1.20603   1.37936   1.37936   1.73043   2.18095

 Mulliken charges and spin densities:
               1          2
     1  H    0.027549  -0.460962
     2  H    0.039155   0.540269
     3  F   -0.066704   0.920692
 Sum of Mulliken charges =  -0.00000   1.00000

 Dipole moment (field-independent basis, Debye):
    X=             -1.1457    Y=             -0.0000    Z=             -0.0000  Tot=              1.1457
 Quadrupole moment (field-independent basis, Debye-Ang):
   XX=             -7.2103   YY=             -7.6823   ZZ=             -7.6823
   XY=             -0.0000   XZ=             -0.0000   YZ=             -0.0000

  Exact polarizability:      61.266      -0.000       2.036      -0.000      -0.000       2.036
 Approx polarizability:      81.706       0.000       1.999       0.000       0.000       1.999

 ******    2 imaginary frequencies (negative Signs) ******

                      1                      2                      3
                      A                      A                      A
 Frequencies --  -2046.9641              -339.9276              1005.9259
 Red. masses --      1.0084                 1.1078                 1.0134
 Frc consts  --      2.4894                 0.0754                 0.6042
 IR Inten    --    400.4144                40.8485                 0.0795

                      4
                      A
 Frequencies --   1005.9259
 Red. masses --      1.0134
 Frc consts  --      0.6042
 IR Inten    --      0.0795

 - Thermochemistry -
 -------------------
 Temperature   298.150 Kelvin.  Pressure   1.00000 Atm.
 Atom     1 has atomic number  1 and mass   1.00783

 Molecular mass:    21.01405 amu.
 Principal axes and moments of inertia in atomic units:
                           1         2         3
     Eigenvalues --     0.00000  75.47438  75.47438
           X            1.00000  -0.00000   0.00000
           Y            0.00000   1.00000   0.00000
           Z            0.00000   0.00000   1.00000
 This molecule is a prolate symmetric top.
 Rotational symmetry number  1.
 Rotational temperature (Kelvin)      1.14759
 Rotational constant (GHZ):          23.911971
    2 imaginary frequencies ignored.
 Zero-point vibrational energy      12033.5 (Joules/Mol)
                                    2.87609 (Kcal/Mol)
 Vibrational temperatures:   1447.30  1447.30
          (Kelvin)

 Zero-point correction=                           0.004583 (Hartree/Particle)
 Thermal correction to Energy=                    0.007016
 Thermal correction to Enthalpy=                  0.007960
 Thermal correction to Gibbs Free Energy=        -0.015637
 Sum of electronic and zero-point Energies=           -100.806495
 Sum of electronic and thermal Energies=              -100.804063
 Sum of electronic and thermal Enthalpies=            -100.803118
 Sum of electronic and thermal Free Energies=         -100.826715

                     E (Thermal)             CV                S
                      KCal/Mol        Cal/Mol-Kelvin    Cal/Mol-Kelvin
 Total                    4.402              5.710             49.664
 Electronic               0.000              0.000              1.377
 Translational            0.889              2.981             35.068
 Rotational               0.592              1.987             13.036
 Vibrational              2.921              0.742              0.183

 Normal termination of Gaussian 16 at Fri Aug 22 17:44:20 2025.
