 Gaussian 16, Revision C.01,
 Gaussian 16:  ES64L-G16RevC.01  3-Jul-2019

 -----------------------------------------
 # sp b3lyp/6-311g** Force nosymm scf=(qc)
 -----------------------------------------

 -------------------
 Title Card Required
 -------------------
 Symbolic Z-matrix:
 Charge =  0 Multiplicity = 2

                          Input orientation:
 ---------------------------------------------------------------------
 Center     Atomic      Atomic             Coordinates (Angstroms)
 Number     Number       Type             X           Y           Z
 ---------------------------------------------------------------------
      1          1           0        0.000000    0.000000    0.000000
      2          1           0       -3.250000    0.000000    0.000000
      3          9           0        2.150000    0.000000    0.000000
 ---------------------------------------------------------------------

 SCF Done:  E(UB3LYP) =  -100.778223308     a.u. after   17 cycles

 Alpha  occ. eigenvalues --  -24.66690  -1.08364  -0.38090  -0.38090  -0.37115
 Alpha  occ. eigenvalues --   -0.33267
 Alpha virt. eigenvalues --   -0.21593   0.20755   0.27928   0.91056   0.95696
 Alpha virt. eigenvalues --    0.95696   1.08322   1.21534   1.21534   1.24116
 Alpha virt. eigenvalues --    1.24116   1.24335   1.44814   2.11923   2.14814

  Beta  occ. eigenvalues --  -24.69252  -1.15579  -0.48292  -0.40628  -0.40628
  Beta virt. eigenvalues --   -0.13071  -0.04774   0.31006   0.39860   0.88597
  Beta virt. eigenvalues --    0.94708   0.94708   1.06181   1.37047   1.37047
  Beta virt. eigenvalues --    1.47503   1.47503   1.47734   1.54003   2.32077

 Mulliken charges and spin densities:
               1          2
     1  H    0.155775   0.808970
     2  H    0.002342   0.997716
     3  F   -0.158117  -0.806686
 Sum of Mulliken charges =   0.00000   1.00000

 Dipole moment (field-independent basis, Debye):
    X=             -1.7342    Y=             -0.0000    Z=             -0.0000  Tot=              1.7342
 Quadrupole moment (field-independent basis, Debye-Ang):
   XX=             -9.9142   YY=             -7.5067   ZZ=             -7.5067
   XY=             -0.0000   XZ=             -0.0000   YZ=              0.0000

  Exact polarizability:      29.869      -0.000       2.045      -0.000      -0.000       2.045
 Approx polarizability:      41.430       0.000       1.933       0.000      -0.000       1.933

 ******    1 imaginary frequencies (negative Signs) ******

                      1                      2                      3
                      A                      A                      A
 Frequencies --   -907.2109                97.8753               379.9692
 Red. masses --      1.0601                 1.0514                 1.0236
 Frc consts  --      0.5141                 0.0059                 0.0871
 IR Inten    --     94.7947                 0.6975                22.5258

                      4
                      A
 Frequencies --    379.9692
 Red. masses --      1.0236
 Frc consts  --      0.0871
 IR Inten    --     22.5258

 - Thermochemistry -
 -------------------
 Temperature   298.150 Kelvin.  Pressure   1.00000 Atm.
 Atom     1 has atomic number  1 and mass   1.00783

 Molecular mass:    21.01405 amu.
 Principal axes and moments of inertia in atomic units:
                           1         2         3
     Eigenvalues --     0.00000 111.74448 111.74448
           X            1.00000  -0.00000   0.00000
           Y            0.00000   1.00000   0.00000
           Z            0.00000   0.00000   1.00000
 This molecule is a prolate symmetric top.
 Rotational symmetry number  1.
 Rotational temperature (Kelvin)      0.77511
 Rotational constant (GHZ):          16.150607
    1 imaginary frequencies ignored.
 Zero-point vibrational energy       5130.9 (Joules/Mol)
                                    1.22631 (Kcal/Mol)
 Warning -- explicit consideration of   3 degrees of freedom as
           vibrations may cause significant error
 Vibrational temperatures:    140.82   546.69   546.69
          (Kelvin)

 Zero-point correction=                           0.001954 (Hartree/Particle)
 Thermal correction to Energy=                    0.005712
 Thermal correction to Enthalpy=                  0.006656
 Thermal correction to Gibbs Free Energy=        -0.019873
 Sum of electronic and zero-point Energies=           -100.776269
 Sum of electronic and thermal Energies=              -100.772511
 Sum of electronic and thermal Enthalpies=            -100.771567
 Sum of electronic and thermal Free Energies=         -100.798096

                     E (Thermal)             CV                S
                      KCal/Mol        Cal/Mol-Kelvin    Cal/Mol-Kelvin
 Total                    3.584              9.944             55.836
 Electronic               0.000              0.000              1.377
 Translational            0.889              2.981             35.068
 Rotational               0.592              1.987             13.816
 Vibrational              2.103              4.976              5.575
 Vibration     1          0.603              1.951              3.496
 Vibration     2          0.750              1.513              1.039
 Vibration     3          0.750              1.513              1.039

 Normal termination of Gaussian 16 at Fri Aug 22 17:08:53 2025.
