 Gaussian 16, Revision C.01,
 Gaussian 16:  ES64L-G16RevC.01  3-Jul-2019

 -----------------------------------------
 # sp b3lyp/6-311g** Force nosymm scf=(qc)
 -----------------------------------------

 -------------------
 Title Card Required
 -------------------
 Symbolic Z-matrix:
 Charge =  0 Multiplicity = 2

                          Input orientation:
 ---------------------------------------------------------------------
 Center     Atomic      Atomic             Coordinates (Angstroms)
 Number     Number       Type             X           Y           Z
 ---------------------------------------------------------------------
      1          1           0        0.000000    0.000000    0.000000
      2          1           0       -1.400000    0.000000    0.000000
      3          9           0        1.900000    0.000000    0.000000
 ---------------------------------------------------------------------

 SCF Done:  E(UB3LYP) =  -100.852025157     a.u. after   13 cycles

 Alpha  occ. eigenvalues --  -24.69617  -1.16026  -0.49432  -0.41014  -0.41014
 Alpha  occ. eigenvalues --   -0.38656
 Alpha virt. eigenvalues --   -0.08613   0.21863   0.31285   0.87242   0.93366
 Alpha virt. eigenvalues --    0.93366   1.03499   1.14148   1.14148   1.35137
 Alpha virt. eigenvalues --    1.42322   1.42322   1.91810   2.22535   2.47507

  Beta  occ. eigenvalues --  -24.67095  -1.08959  -0.38525  -0.38525  -0.38375
  Beta virt. eigenvalues --   -0.23696  -0.06580   0.23756   0.31462   0.91762
  Beta virt. eigenvalues --    0.94288   0.94288   1.07389   1.16446   1.16446
  Beta virt. eigenvalues --    1.39417   1.43350   1.43350   1.94013   2.23648

 Mulliken charges and spin densities:
               1          2
     1  H    0.094060  -0.273045
     2  H    0.065167   0.483439
     3  F   -0.159227   0.789606
 Sum of Mulliken charges =   0.00000   1.00000

 Dipole moment (field-independent basis, Debye):
    X=             -1.9224    Y=             -0.0000    Z=              0.0000  Tot=              1.9224
 Quadrupole moment (field-independent basis, Debye-Ang):
   XX=             -7.5805   YY=             -7.4509   ZZ=             -7.4509
   XY=             -0.0000   XZ=              0.0000   YZ=              0.0000

  Exact polarizability:      47.683      -0.000       2.165       0.000      -0.000       2.165
 Approx polarizability:      74.225       0.000       2.124      -0.000       0.000       2.124

 ******    2 imaginary frequencies (negative Signs) ******

                      1                      2                      3
                      A                      A                      A
 Frequencies --  -2181.7711              -435.3326              1172.5280
 Red. masses --      1.0140                 1.1012                 1.0147
 Frc consts  --      2.8437                 0.1230                 0.8219
 IR Inten    --   1017.8667                 4.3928                 2.0546

                      4
                      A
 Frequencies --   1172.5280
 Red. masses --      1.0147
 Frc consts  --      0.8219
 IR Inten    --      2.0546

 - Thermochemistry -
 -------------------
 Temperature   298.150 Kelvin.  Pressure   1.00000 Atm.
 Atom     1 has atomic number  1 and mass   1.00783

 Molecular mass:    21.01405 amu.
 Principal axes and moments of inertia in atomic units:
                           1         2         3
     Eigenvalues --     0.00000  47.51833  47.51833
           X            1.00000  -0.00000   0.00000
           Y            0.00000   1.00000   0.00000
           Z            0.00000   0.00000   1.00000
 This molecule is a prolate symmetric top.
 Rotational symmetry number  1.
 Rotational temperature (Kelvin)      1.82275
 Rotational constant (GHZ):          37.979893
    2 imaginary frequencies ignored.
 Zero-point vibrational energy      14026.5 (Joules/Mol)
                                    3.35243 (Kcal/Mol)
 Vibrational temperatures:   1687.01  1687.01
          (Kelvin)

 Zero-point correction=                           0.005342 (Hartree/Particle)
 Thermal correction to Energy=                    0.007740
 Thermal correction to Enthalpy=                  0.008684
 Thermal correction to Gibbs Free Energy=        -0.014433
 Sum of electronic and zero-point Energies=           -100.846683
 Sum of electronic and thermal Energies=              -100.844285
 Sum of electronic and thermal Enthalpies=            -100.843341
 Sum of electronic and thermal Free Energies=         -100.866458

                     E (Thermal)             CV                S
                      KCal/Mol        Cal/Mol-Kelvin    Cal/Mol-Kelvin
 Total                    4.857              5.415             48.655
 Electronic               0.000              0.000              1.377
 Translational            0.889              2.981             35.068
 Rotational               0.592              1.987             12.116
 Vibrational              3.376              0.447              0.093

 Normal termination of Gaussian 16 at Fri Aug 22 16:49:28 2025.
