 Gaussian 16, Revision C.01,
 Gaussian 16:  ES64L-G16RevC.01  3-Jul-2019

 -----------------------------------------
 # sp b3lyp/6-311g** Force nosymm scf=(qc)
 -----------------------------------------

 -------------------
 Title Card Required
 -------------------
 Symbolic Z-matrix:
 Charge =  0 Multiplicity = 2

                          Input orientation:
 ---------------------------------------------------------------------
 Center     Atomic      Atomic             Coordinates (Angstroms)
 Number     Number       Type             X           Y           Z
 ---------------------------------------------------------------------
      1          1           0        0.000000    0.000000    0.000000
      2          1           0       -3.050000    0.000000    0.000000
      3          9           0        3.100000    0.000000    0.000000
 ---------------------------------------------------------------------

 SCF Done:  E(UB3LYP) =  -100.761184916     a.u. after   23 cycles

 Alpha  occ. eigenvalues --  -24.74441  -1.20474  -0.53561  -0.44972  -0.44972
 Alpha  occ. eigenvalues --   -0.32626
 Alpha virt. eigenvalues --   -0.08666   0.24661   0.35372   0.89083   0.92061
 Alpha virt. eigenvalues --    0.92061   1.03378   1.24907   1.24907   1.25584
 Alpha virt. eigenvalues --    1.43008   1.43008   1.43268   2.15487   2.39359

  Beta  occ. eigenvalues --  -24.71390  -1.11723  -0.41917  -0.41917  -0.33528
  Beta virt. eigenvalues --   -0.24979  -0.07477   0.24576   0.36869   0.93530
  Beta virt. eigenvalues --    0.93530   0.97919   1.07226   1.23855   1.23855
  Beta virt. eigenvalues --    1.24562   1.44767   1.44862   1.44862   2.15976

 Mulliken charges and spin densities:
               1          2
     1  H    0.028694  -0.960571
     2  H    0.001212   0.993504
     3  F   -0.029906   0.967067
 Sum of Mulliken charges =  -0.00000   1.00000

 Dipole moment (field-independent basis, Debye):
    X=             -0.4940    Y=             -0.0000    Z=              0.0000  Tot=              0.4940
 Quadrupole moment (field-independent basis, Debye-Ang):
   XX=             -8.0148   YY=             -7.6241   ZZ=             -7.6241
   XY=             -0.0000   XZ=              0.0000   YZ=              0.0000

  Exact polarizability:      33.716      -0.000       2.024       0.000       0.000       2.024
 Approx polarizability:      31.517      -0.000       1.926       0.000      -0.000       1.926

 ******    2 imaginary frequencies (negative Signs) ******

                      1                      2                      3
                      A                      A                      A
 Frequencies --   -405.7436              -171.6475               147.4455
 Red. masses --      1.0238                 1.0898                 1.0177
 Frc consts  --      0.0993                 0.0189                 0.0130
 IR Inten    --     28.2107                 5.2106                 0.7304

                      4
                      A
 Frequencies --    147.4455
 Red. masses --      1.0177
 Frc consts  --      0.0130
 IR Inten    --      0.7304

 - Thermochemistry -
 -------------------
 Temperature   298.150 Kelvin.  Pressure   1.00000 Atm.
 Atom     1 has atomic number  1 and mass   1.00783

 Molecular mass:    21.01405 amu.
 Principal axes and moments of inertia in atomic units:
                           1         2         3
     Eigenvalues --     0.00000 155.94129 155.94129
           X            1.00000  -0.00000   0.00000
           Y            0.00000   1.00000   0.00000
           Z            0.00000   0.00000   1.00000
 This molecule is a prolate symmetric top.
 Rotational symmetry number  1.
 Rotational temperature (Kelvin)      0.55543
 Rotational constant (GHZ):          11.573209
    2 imaginary frequencies ignored.
 Zero-point vibrational energy       1763.8 (Joules/Mol)
                                    0.42157 (Kcal/Mol)
 Warning -- explicit consideration of   2 degrees of freedom as
           vibrations may cause significant error
 Vibrational temperatures:    212.14   212.14
          (Kelvin)

 Zero-point correction=                           0.000672 (Hartree/Particle)
 Thermal correction to Energy=                    0.004328
 Thermal correction to Enthalpy=                  0.005272
 Thermal correction to Gibbs Free Energy=        -0.021494
 Sum of electronic and zero-point Energies=           -100.760513
 Sum of electronic and thermal Energies=              -100.756857
 Sum of electronic and thermal Enthalpies=            -100.755913
 Sum of electronic and thermal Free Energies=         -100.782679

                     E (Thermal)             CV                S
                      KCal/Mol        Cal/Mol-Kelvin    Cal/Mol-Kelvin
 Total                    2.716              8.779             56.333
 Electronic               0.000              0.000              1.377
 Translational            0.889              2.981             35.068
 Rotational               0.592              1.987             14.478
 Vibrational              1.235              3.811              5.410
 Vibration     1          0.617              1.905              2.705
 Vibration     2          0.617              1.905              2.705

 Normal termination of Gaussian 16 at Fri Aug 22 19:55:50 2025.
