 Gaussian 16, Revision C.01,
 Gaussian 16:  ES64L-G16RevC.01  3-Jul-2019

 -----------------------------------------
 # sp b3lyp/6-311g** Force nosymm scf=(qc)
 -----------------------------------------

 -------------------
 Title Card Required
 -------------------
 Symbolic Z-matrix:
 Charge =  0 Multiplicity = 2

                          Input orientation:
 ---------------------------------------------------------------------
 Center     Atomic      Atomic             Coordinates (Angstroms)
 Number     Number       Type             X           Y           Z
 ---------------------------------------------------------------------
      1          1           0        0.000000    0.000000    0.000000
      2          1           0       -1.900000    0.000000    0.000000
      3          9           0        1.900000    0.000000    0.000000
 ---------------------------------------------------------------------

 SCF Done:  E(UB3LYP) =  -100.811062704     a.u. after   16 cycles

 Alpha  occ. eigenvalues --  -24.67367  -1.13707  -0.46546  -0.39014  -0.39014
 Alpha  occ. eigenvalues --   -0.37094
 Alpha virt. eigenvalues --   -0.13167   0.23468   0.30267   0.88208   0.94970
 Alpha virt. eigenvalues --    0.94970   1.04305   1.20683   1.20683   1.29338
 Alpha virt. eigenvalues --    1.33992   1.33992   1.66025   2.11826   2.32239

  Beta  occ. eigenvalues --  -24.65128  -1.07481  -0.37947  -0.36815  -0.36815
  Beta virt. eigenvalues --   -0.21261  -0.11188   0.25864   0.31029   0.90759
  Beta virt. eigenvalues --    0.95472   0.95472   1.08063   1.23689   1.23689
  Beta virt. eigenvalues --    1.35490   1.35490   1.38562   1.64557   2.12937

 Mulliken charges and spin densities:
               1          2
     1  H    0.160125  -0.559970
     2  H    0.052736   0.857025
     3  F   -0.212861   0.702945
 Sum of Mulliken charges =   0.00000   1.00000

 Dipole moment (field-independent basis, Debye):
    X=             -2.4773    Y=             -0.0000    Z=              0.0000  Tot=              2.4773
 Quadrupole moment (field-independent basis, Debye-Ang):
   XX=             -8.6299   YY=             -7.5153   ZZ=             -7.5153
   XY=             -0.0000   XZ=              0.0000   YZ=             -0.0000

  Exact polarizability:      48.453      -0.000       2.090       0.000      -0.000       2.090
 Approx polarizability:      61.321      -0.000       2.001       0.000       0.000       2.001

 ******    2 imaginary frequencies (negative Signs) ******

                      1                      2                      3
                      A                      A                      A
 Frequencies --  -1784.3560              -605.9682               736.4381
 Red. masses --      1.0205                 1.0936                 1.0179
 Frc consts  --      1.9144                 0.2366                 0.3253
 IR Inten    --    166.3004                25.0050                14.9666

                      4
                      A
 Frequencies --    736.4381
 Red. masses --      1.0179
 Frc consts  --      0.3253
 IR Inten    --     14.9666

 - Thermochemistry -
 -------------------
 Temperature   298.150 Kelvin.  Pressure   1.00000 Atm.
 Atom     1 has atomic number  1 and mass   1.00783

 Molecular mass:    21.01405 amu.
 Principal axes and moments of inertia in atomic units:
                           1         2         3
     Eigenvalues --     0.00000  59.35411  59.35411
           X            1.00000  -0.00000   0.00000
           Y            0.00000   1.00000   0.00000
           Z            0.00000   0.00000   1.00000
 This molecule is a prolate symmetric top.
 Rotational symmetry number  1.
 Rotational temperature (Kelvin)      1.45927
 Rotational constant (GHZ):          30.406342
    2 imaginary frequencies ignored.
 Zero-point vibrational energy       8809.8 (Joules/Mol)
                                    2.10558 (Kcal/Mol)
 Vibrational temperatures:   1059.57  1059.57
          (Kelvin)

 Zero-point correction=                           0.003355 (Hartree/Particle)
 Thermal correction to Energy=                    0.005914
 Thermal correction to Enthalpy=                  0.006858
 Thermal correction to Gibbs Free Energy=        -0.016678
 Sum of electronic and zero-point Energies=           -100.807707
 Sum of electronic and thermal Energies=              -100.805149
 Sum of electronic and thermal Enthalpies=            -100.804205
 Sum of electronic and thermal Free Energies=         -100.827741

                     E (Thermal)             CV                S
                      KCal/Mol        Cal/Mol-Kelvin    Cal/Mol-Kelvin
 Total                    3.711              6.490             49.535
 Electronic               0.000              0.000              1.377
 Translational            0.889              2.981             35.068
 Rotational               0.592              1.987             12.558
 Vibrational              2.230              1.522              0.531

 Normal termination of Gaussian 16 at Fri Aug 22 16:49:56 2025.
