 Gaussian 16, Revision C.01,
 Gaussian 16:  ES64L-G16RevC.01  3-Jul-2019

 -----------------------------------------
 # sp b3lyp/6-311g** Force nosymm scf=(qc)
 -----------------------------------------

 -------------------
 Title Card Required
 -------------------
 Symbolic Z-matrix:
 Charge =  0 Multiplicity = 2

                          Input orientation:
 ---------------------------------------------------------------------
 Center     Atomic      Atomic             Coordinates (Angstroms)
 Number     Number       Type             X           Y           Z
 ---------------------------------------------------------------------
      1          1           0        0.000000    0.000000    0.000000
      2          1           0       -3.350000    0.000000    0.000000
      3          9           0        1.100000    0.000000    0.000000
 ---------------------------------------------------------------------

 SCF Done:  E(UB3LYP) =  -100.948465754     a.u. after    6 cycles

 Alpha  occ. eigenvalues --  -24.64284  -1.13857  -0.49604  -0.38091  -0.38091
 Alpha  occ. eigenvalues --   -0.33916
 Alpha virt. eigenvalues --   -0.02425   0.23404   0.31242   0.93580   0.93580
 Alpha virt. eigenvalues --    0.99608   1.23514   1.23603   1.23603   1.29051
 Alpha virt. eigenvalues --    1.35228   1.35228   1.79724   2.14107   2.31874

  Beta  occ. eigenvalues --  -24.64280  -1.13847  -0.49592  -0.38088  -0.38088
  Beta virt. eigenvalues --   -0.07002  -0.01399   0.29718   0.38826   0.93580
  Beta virt. eigenvalues --    0.93580   0.99617   1.28860   1.35222   1.35222
  Beta virt. eigenvalues --    1.48485   1.48485   1.48851   1.79764   2.31723

 Mulliken charges and spin densities:
               1          2
     1  H    0.339796   0.000504
     2  H    0.001536   0.998211
     3  F   -0.341333   0.001285
 Sum of Mulliken charges =   0.00000   1.00000

 Dipole moment (field-independent basis, Debye):
    X=             -2.1789    Y=              0.0000    Z=             -0.0000  Tot=              2.1789
 Quadrupole moment (field-independent basis, Debye-Ang):
   XX=             -8.5133   YY=             -7.0485   ZZ=             -7.0485
   XY=              0.0000   XZ=             -0.0000   YZ=              0.0000

  Exact polarizability:       8.256       0.000       2.366      -0.000      -0.000       2.366
 Approx polarizability:      10.704       0.000       2.331       0.000      -0.000       2.331

 ******    1 imaginary frequencies (negative Signs) ******

                      1                      2                      3
                      A                      A                      A
 Frequencies --    -64.4242              1182.2057              1182.2057
 Red. masses --      1.0531                 1.0348                 1.0348
 Frc consts  --      0.0026                 0.8521                 0.8521
 IR Inten    --      0.1254               155.9208               155.9208

                      4
                      A
 Frequencies --   1938.7078
 Red. masses --      1.0585
 Frc consts  --      2.3440
 IR Inten    --     81.1085

 - Thermochemistry -
 -------------------
 Temperature   298.150 Kelvin.  Pressure   1.00000 Atm.
 Atom     1 has atomic number  1 and mass   1.00783

 Molecular mass:    21.01405 amu.
 Principal axes and moments of inertia in atomic units:
                           1         2         3
     Eigenvalues --     0.00000  70.30744  70.30744
           X            1.00000  -0.00000   0.00000
           Y            0.00000   1.00000   0.00000
           Z            0.00000   0.00000   1.00000
 This molecule is a prolate symmetric top.
 Rotational symmetry number  1.
 Rotational temperature (Kelvin)      1.23193
 Rotational constant (GHZ):          25.669277
    1 imaginary frequencies ignored.
 Zero-point vibrational energy      25738.4 (Joules/Mol)
                                    6.15162 (Kcal/Mol)
 Vibrational temperatures:   1700.93  1700.93  2789.37
          (Kelvin)

 Zero-point correction=                           0.009803 (Hartree/Particle)
 Thermal correction to Energy=                    0.012200
 Thermal correction to Enthalpy=                  0.013145
 Thermal correction to Gibbs Free Energy=        -0.010342
 Sum of electronic and zero-point Energies=           -100.938663
 Sum of electronic and thermal Energies=              -100.936265
 Sum of electronic and thermal Enthalpies=            -100.935321
 Sum of electronic and thermal Free Energies=         -100.958807

                     E (Thermal)             CV                S
                      KCal/Mol        Cal/Mol-Kelvin    Cal/Mol-Kelvin
 Total                    7.656              5.417             49.431
 Electronic               0.000              0.000              1.377
 Translational            0.889              2.981             35.068
 Rotational               0.592              1.987             12.895
 Vibrational              6.175              0.449              0.091

 Normal termination of Gaussian 16 at Fri Aug 22 16:06:13 2025.
