 Gaussian 16, Revision C.01,
 Gaussian 16:  ES64L-G16RevC.01  3-Jul-2019

 -----------------------------------------
 # sp b3lyp/6-311g** Force nosymm scf=(qc)
 -----------------------------------------

 -------------------
 Title Card Required
 -------------------
 Symbolic Z-matrix:
 Charge =  0 Multiplicity = 2

                          Input orientation:
 ---------------------------------------------------------------------
 Center     Atomic      Atomic             Coordinates (Angstroms)
 Number     Number       Type             X           Y           Z
 ---------------------------------------------------------------------
      1          1           0        0.000000    0.000000    0.000000
      2          1           0       -1.950000    0.000000    0.000000
      3          9           0        0.600000    0.000000    0.000000
 ---------------------------------------------------------------------

 SCF Done:  E(UB3LYP) =  -100.687052803     a.u. after    7 cycles

 Alpha  occ. eigenvalues --  -24.62678  -1.34704  -0.61130  -0.42927  -0.42927
 Alpha  occ. eigenvalues --   -0.35164
 Alpha virt. eigenvalues --    0.11310   0.24080   0.54622   0.92154   0.92154
 Alpha virt. eigenvalues --    0.93638   1.21634   1.22197   1.22197   1.50439
 Alpha virt. eigenvalues --    1.50439   1.57724   1.98457   2.18717   3.37188

  Beta  occ. eigenvalues --  -24.62647  -1.34609  -0.61004  -0.42909  -0.42909
  Beta virt. eigenvalues --   -0.10075   0.12692   0.34875   0.56147   0.92149
  Beta virt. eigenvalues --    0.92149   0.93749   1.30903   1.42060   1.42060
  Beta virt. eigenvalues --    1.50789   1.50789   1.65748   2.01767   2.44060

 Mulliken charges and spin densities:
               1          2
     1  H    0.219739   0.010852
     2  H    0.009706   0.985503
     3  F   -0.229446   0.003645
 Sum of Mulliken charges =   0.00000   1.00000

 Dipole moment (field-independent basis, Debye):
    X=             -1.5077    Y=             -0.0000    Z=             -0.0000  Tot=              1.5077
 Quadrupole moment (field-independent basis, Debye-Ang):
   XX=             -6.7427   YY=             -6.5180   ZZ=             -6.5180
   XY=             -0.0000   XZ=             -0.0000   YZ=              0.0000

  Exact polarizability:       5.814       0.000       2.485      -0.000      -0.000       2.485
 Approx polarizability:       5.637      -0.000       2.479      -0.000      -0.000       2.479

 ******    2 imaginary frequencies (negative Signs) ******

                      1                      2                      3
                      A                      A                      A
 Frequencies --  -5794.1734             -5794.1734               411.4158
 Red. masses --      1.0358                 1.0358                 1.0533
 Frc consts  --     20.4891                20.4891                 0.1050
 IR Inten    --    200.9798               200.9798                 0.0012

                      4
                      A
 Frequencies --  13070.1130
 Red. masses --      1.0583
 Frc consts  --    106.5137
 IR Inten    --    118.0059

 - Thermochemistry -
 -------------------
 Temperature   298.150 Kelvin.  Pressure   1.00000 Atm.
 Atom     1 has atomic number  1 and mass   1.00783

 Molecular mass:    21.01405 amu.
 Principal axes and moments of inertia in atomic units:
                           1         2         3
     Eigenvalues --     0.00000  22.98550  22.98550
           X            1.00000  -0.00000   0.00000
           Y            0.00000   1.00000   0.00000
           Z            0.00000   0.00000   1.00000
 This molecule is a prolate symmetric top.
 Rotational symmetry number  1.
 Rotational temperature (Kelvin)      3.76820
 Rotational constant (GHZ):          78.516495
    2 imaginary frequencies ignored.
 Zero-point vibrational energy      80637.4 (Joules/Mol)
                                   19.27281 (Kcal/Mol)
 Warning -- explicit consideration of   1 degrees of freedom as
           vibrations may cause significant error
 Vibrational temperatures:    591.94 18804.98
          (Kelvin)

 Zero-point correction=                           0.030713 (Hartree/Particle)
 Thermal correction to Energy=                    0.033372
 Thermal correction to Enthalpy=                  0.034316
 Thermal correction to Gibbs Free Energy=         0.011491
 Sum of electronic and zero-point Energies=           -100.656340
 Sum of electronic and thermal Energies=              -100.653681
 Sum of electronic and thermal Enthalpies=            -100.652737
 Sum of electronic and thermal Free Energies=         -100.675562

                     E (Thermal)             CV                S
                      KCal/Mol        Cal/Mol-Kelvin    Cal/Mol-Kelvin
 Total                   20.941              6.413             48.040
 Electronic               0.000              0.000              1.377
 Translational            0.889              2.981             35.068
 Rotational               0.592              1.987             10.673
 Vibrational             19.460              1.445              0.922
 Vibration     1          0.775              1.445              0.922

 Normal termination of Gaussian 16 at Fri Aug 22 15:41:40 2025.
