 Gaussian 16, Revision C.01,
 Gaussian 16:  ES64L-G16RevC.01  3-Jul-2019

 -----------------------------------------
 # sp b3lyp/6-311g** Force nosymm scf=(qc)
 -----------------------------------------

 -------------------
 Title Card Required
 -------------------
 Symbolic Z-matrix:
 Charge =  0 Multiplicity = 2

                          Input orientation:
 ---------------------------------------------------------------------
 Center     Atomic      Atomic             Coordinates (Angstroms)
 Number     Number       Type             X           Y           Z
 ---------------------------------------------------------------------
      1          1           0        0.000000    0.000000    0.000000
      2          1           0       -1.550000    0.000000    0.000000
      3          9           0        1.350000    0.000000    0.000000
 ---------------------------------------------------------------------

 SCF Done:  E(UB3LYP) =  -100.901001426     a.u. after   10 cycles

 Alpha  occ. eigenvalues --  -24.63741  -1.10910  -0.47658  -0.37959  -0.36512
 Alpha  occ. eigenvalues --   -0.36512
 Alpha virt. eigenvalues --   -0.04156   0.20933   0.28626   0.93527   0.93527
 Alpha virt. eigenvalues --    1.01240   1.03151   1.15753   1.15753   1.39488
 Alpha virt. eigenvalues --    1.39488   1.51663   1.81498   2.18531   2.39310

  Beta  occ. eigenvalues --  -24.62915  -1.08759  -0.43669  -0.35738  -0.35738
  Beta virt. eigenvalues --   -0.20092  -0.00484   0.24820   0.30960   0.93585
  Beta virt. eigenvalues --    0.93585   1.04390   1.08169   1.24824   1.24824
  Beta virt. eigenvalues --    1.42452   1.42452   1.55840   1.86976   2.24918

 Mulliken charges and spin densities:
               1          2
     1  H    0.291671  -0.104877
     2  H    0.063802   0.852876
     3  F   -0.355473   0.252001
 Sum of Mulliken charges =   0.00000   1.00000

 Dipole moment (field-independent basis, Debye):
    X=             -2.9065    Y=              0.0000    Z=             -0.0000  Tot=              2.9065
 Quadrupole moment (field-independent basis, Debye-Ang):
   XX=             -8.1941   YY=             -7.1217   ZZ=             -7.1217
   XY=              0.0000   XZ=             -0.0000   YZ=              0.0000

  Exact polarizability:      26.341       0.000       2.362      -0.000       0.000       2.362
 Approx polarizability:      35.699       0.000       2.318      -0.000       0.000       2.318

 ******    2 imaginary frequencies (negative Signs) ******

                      1                      2                      3
                      A                      A                      A
 Frequencies --  -2207.4592              -116.8582              1094.1716
 Red. masses --      1.0238                 1.0898                 1.0197
 Frc consts  --      2.9393                 0.0088                 0.7193
 IR Inten    --      0.1046                15.2139                52.2578

                      4
                      A
 Frequencies --   1094.1716
 Red. masses --      1.0197
 Frc consts  --      0.7193
 IR Inten    --     52.2578

 - Thermochemistry -
 -------------------
 Temperature   298.150 Kelvin.  Pressure   1.00000 Atm.
 Atom     1 has atomic number  1 and mass   1.00783

 Molecular mass:    21.01405 amu.
 Principal axes and moments of inertia in atomic units:
                           1         2         3
     Eigenvalues --     0.00000  33.70914  33.70914
           X            1.00000  -0.00000   0.00000
           Y            0.00000   1.00000   0.00000
           Z            0.00000   0.00000   1.00000
 This molecule is a prolate symmetric top.
 Rotational symmetry number  1.
 Rotational temperature (Kelvin)      2.56945
 Rotational constant (GHZ):          53.538627
    2 imaginary frequencies ignored.
 Zero-point vibrational energy      13089.2 (Joules/Mol)
                                    3.12839 (Kcal/Mol)
 Vibrational temperatures:   1574.27  1574.27
          (Kelvin)

 Zero-point correction=                           0.004985 (Hartree/Particle)
 Thermal correction to Energy=                    0.007397
 Thermal correction to Enthalpy=                  0.008341
 Thermal correction to Gibbs Free Energy=        -0.014469
 Sum of electronic and zero-point Energies=           -100.896016
 Sum of electronic and thermal Energies=              -100.893605
 Sum of electronic and thermal Enthalpies=            -100.892660
 Sum of electronic and thermal Free Energies=         -100.915470

                     E (Thermal)             CV                S
                      KCal/Mol        Cal/Mol-Kelvin    Cal/Mol-Kelvin
 Total                    4.642              5.538             48.007
 Electronic               0.000              0.000              1.377
 Translational            0.889              2.981             35.068
 Rotational               0.592              1.987             11.434
 Vibrational              3.160              0.570              0.128

 Normal termination of Gaussian 16 at Fri Aug 22 16:17:16 2025.
