 Gaussian 16, Revision C.01,
 Gaussian 16:  ES64L-G16RevC.01  3-Jul-2019

 -----------------------------------------
 # sp b3lyp/6-311g** Force nosymm scf=(qc)
 -----------------------------------------

 -------------------
 Title Card Required
 -------------------
 Symbolic Z-matrix:
 Charge =  0 Multiplicity = 2

                          Input orientation:
 ---------------------------------------------------------------------
 Center     Atomic      Atomic             Coordinates (Angstroms)
 Number     Number       Type             X           Y           Z
 ---------------------------------------------------------------------
      1          1           0        0.000000    0.000000    0.000000
      2          1           0       -2.800000    0.000000    0.000000
      3          9           0        3.550000    0.000000    0.000000
 ---------------------------------------------------------------------

 SCF Done:  E(UB3LYP) =  -100.760671063     a.u. after   33 cycles

 Alpha  occ. eigenvalues --  -24.75495  -1.21450  -0.54618  -0.45858  -0.45858
 Alpha  occ. eigenvalues --   -0.32499
 Alpha virt. eigenvalues --   -0.08540   0.25297   0.35358   0.87456   0.91412
 Alpha virt. eigenvalues --    0.91412   1.01678   1.25067   1.25067   1.26209
 Alpha virt. eigenvalues --    1.43078   1.43078   1.43411   2.15944   2.38672

  Beta  occ. eigenvalues --  -24.72375  -1.12483  -0.42731  -0.42731  -0.32852
  Beta virt. eigenvalues --   -0.25545  -0.08055   0.25082   0.36088   0.92903
  Beta virt. eigenvalues --    0.92903   0.96646   1.05723   1.24656   1.24656
  Beta virt. eigenvalues --    1.25746   1.43837   1.43837   1.44168   2.16280

 Mulliken charges and spin densities:
               1          2
     1  H    0.008628  -0.976383
     2  H    0.000998   0.987092
     3  F   -0.009626   0.989291
 Sum of Mulliken charges =   0.00000   1.00000

 Dipole moment (field-independent basis, Debye):
    X=             -0.1890    Y=             -0.0000    Z=              0.0000  Tot=              0.1890
 Quadrupole moment (field-independent basis, Debye-Ang):
   XX=             -7.1848   YY=             -7.6442   ZZ=             -7.6442
   XY=              0.0000   XZ=              0.0000   YZ=              0.0000

  Exact polarizability:      26.850       0.000       2.032       0.000       0.000       2.032
 Approx polarizability:      20.307       0.000       1.931       0.000      -0.000       1.931

 ******    2 imaginary frequencies (negative Signs) ******

                      1                      2                      3
                      A                      A                      A
 Frequencies --   -450.0330              -130.3315               158.0274
 Red. masses --      1.0088                 1.1074                 1.0153
 Frc consts  --      0.1204                 0.0111                 0.0149
 IR Inten    --      5.5303                 4.3592                 0.0548

                      4
                      A
 Frequencies --    158.0274
 Red. masses --      1.0153
 Frc consts  --      0.0149
 IR Inten    --      0.0548

 - Thermochemistry -
 -------------------
 Temperature   298.150 Kelvin.  Pressure   1.00000 Atm.
 Atom     1 has atomic number  1 and mass   1.00783

 Molecular mass:    21.01405 amu.
 Principal axes and moments of inertia in atomic units:
                           1         2         3
     Eigenvalues --     0.00000 173.56032 173.56032
           X            1.00000  -0.00000   0.00000
           Y            0.00000   1.00000   0.00000
           Z            0.00000   0.00000   1.00000
 This molecule is a prolate symmetric top.
 Rotational symmetry number  1.
 Rotational temperature (Kelvin)      0.49904
 Rotational constant (GHZ):          10.398351
    2 imaginary frequencies ignored.
 Zero-point vibrational energy       1890.4 (Joules/Mol)
                                    0.45182 (Kcal/Mol)
 Warning -- explicit consideration of   2 degrees of freedom as
           vibrations may cause significant error
 Vibrational temperatures:    227.37   227.37
          (Kelvin)

 Zero-point correction=                           0.000720 (Hartree/Particle)
 Thermal correction to Energy=                    0.004339
 Thermal correction to Enthalpy=                  0.005284
 Thermal correction to Gibbs Free Energy=        -0.021458
 Sum of electronic and zero-point Energies=           -100.759951
 Sum of electronic and thermal Energies=              -100.756332
 Sum of electronic and thermal Enthalpies=            -100.755387
 Sum of electronic and thermal Free Energies=         -100.782129

                     E (Thermal)             CV                S
                      KCal/Mol        Cal/Mol-Kelvin    Cal/Mol-Kelvin
 Total                    2.723              8.755             56.283
 Electronic               0.000              0.000              1.377
 Translational            0.889              2.981             35.068
 Rotational               0.592              1.987             14.691
 Vibrational              1.242              3.787              5.147
 Vibration     1          0.621              1.894              2.573
 Vibration     2          0.621              1.894              2.573

 Normal termination of Gaussian 16 at Fri Aug 22 22:40:17 2025.
