 Gaussian 16, Revision C.01,
 Gaussian 16:  ES64L-G16RevC.01  3-Jul-2019

 -----------------------------------------
 # sp b3lyp/6-311g** Force nosymm scf=(qc)
 -----------------------------------------

 -------------------
 Title Card Required
 -------------------
 Symbolic Z-matrix:
 Charge =  0 Multiplicity = 2

                          Input orientation:
 ---------------------------------------------------------------------
 Center     Atomic      Atomic             Coordinates (Angstroms)
 Number     Number       Type             X           Y           Z
 ---------------------------------------------------------------------
      1          1           0        0.000000    0.000000    0.000000
      2          1           0       -2.450000    0.000000    0.000000
      3          9           0        2.000000    0.000000    0.000000
 ---------------------------------------------------------------------

 SCF Done:  E(UB3LYP) =  -100.791166681     a.u. after   12 cycles

 Alpha  occ. eigenvalues --  -24.68106  -1.14424  -0.47101  -0.39639  -0.39639
 Alpha  occ. eigenvalues --   -0.34999
 Alpha virt. eigenvalues --   -0.13866   0.24012   0.30858   0.89668   0.94968
 Alpha virt. eigenvalues --    0.94968   1.06205   1.22668   1.22668   1.26023
 Alpha virt. eigenvalues --    1.34859   1.34859   1.60120   2.13443   2.28701

  Beta  occ. eigenvalues --  -24.65737  -1.07800  -0.37696  -0.37304  -0.37304
  Beta virt. eigenvalues --   -0.20848  -0.10096   0.24995   0.34401   0.91878
  Beta virt. eigenvalues --    0.95630   0.95630   1.08746   1.22412   1.22412
  Beta virt. eigenvalues --    1.40761   1.40761   1.42563   1.53931   2.13102

 Mulliken charges and spin densities:
               1          2
     1  H    0.172566  -0.710841
     2  H    0.019934   0.965688
     3  F   -0.192499   0.745154
 Sum of Mulliken charges =   0.00000   1.00000

 Dipole moment (field-independent basis, Debye):
    X=             -2.1386    Y=             -0.0000    Z=              0.0000  Tot=              2.1386
 Quadrupole moment (field-independent basis, Debye-Ang):
   XX=             -9.3549   YY=             -7.5249   ZZ=             -7.5249
   XY=             -0.0000   XZ=              0.0000   YZ=             -0.0000

  Exact polarizability:      38.663      -0.000       2.058       0.000      -0.000       2.058
 Approx polarizability:      46.552       0.000       1.951      -0.000       0.000       1.951

 ******    2 imaginary frequencies (negative Signs) ******

                      1                      2                      3
                      A                      A                      A
 Frequencies --  -1232.0071              -415.2029               516.3448
 Red. masses --      1.0411                 1.0708                 1.0206
 Frc consts  --      0.9311                 0.1088                 0.1603
 IR Inten    --     91.7352                17.7244                24.1200

                      4
                      A
 Frequencies --    516.3448
 Red. masses --      1.0206
 Frc consts  --      0.1603
 IR Inten    --     24.1200

 - Thermochemistry -
 -------------------
 Temperature   298.150 Kelvin.  Pressure   1.00000 Atm.
 Atom     1 has atomic number  1 and mass   1.00783

 Molecular mass:    21.01405 amu.
 Principal axes and moments of inertia in atomic units:
                           1         2         3
     Eigenvalues --     0.00000  78.48452  78.48452
           X            1.00000  -0.00000   0.00000
           Y            0.00000   1.00000   0.00000
           Z            0.00000   0.00000   1.00000
 This molecule is a prolate symmetric top.
 Rotational symmetry number  1.
 Rotational temperature (Kelvin)      1.10358
 Rotational constant (GHZ):          22.994868
    2 imaginary frequencies ignored.
 Zero-point vibrational energy       6176.9 (Joules/Mol)
                                    1.47630 (Kcal/Mol)
 Warning -- explicit consideration of   2 degrees of freedom as
           vibrations may cause significant error
 Vibrational temperatures:    742.91   742.91
          (Kelvin)

 Zero-point correction=                           0.002353 (Hartree/Particle)
 Thermal correction to Energy=                    0.005138
 Thermal correction to Enthalpy=                  0.006082
 Thermal correction to Gibbs Free Energy=        -0.018053
 Sum of electronic and zero-point Energies=           -100.788814
 Sum of electronic and thermal Energies=              -100.786029
 Sum of electronic and thermal Enthalpies=            -100.785085
 Sum of electronic and thermal Free Energies=         -100.809220

                     E (Thermal)             CV                S
                      KCal/Mol        Cal/Mol-Kelvin    Cal/Mol-Kelvin
 Total                    3.224              7.396             50.796
 Electronic               0.000              0.000              1.377
 Translational            0.889              2.981             35.068
 Rotational               0.592              1.987             13.114
 Vibrational              1.743              2.428              1.237
 Vibration     1          0.871              1.214              0.618
 Vibration     2          0.871              1.214              0.618

 Normal termination of Gaussian 16 at Fri Aug 22 16:56:53 2025.
