 Gaussian 16, Revision C.01,
 Gaussian 16:  ES64L-G16RevC.01  3-Jul-2019

 -----------------------------------------
 # sp b3lyp/6-311g** Force nosymm scf=(qc)
 -----------------------------------------

 -------------------
 Title Card Required
 -------------------
 Symbolic Z-matrix:
 Charge =  0 Multiplicity = 2

                          Input orientation:
 ---------------------------------------------------------------------
 Center     Atomic      Atomic             Coordinates (Angstroms)
 Number     Number       Type             X           Y           Z
 ---------------------------------------------------------------------
      1          1           0        0.000000    0.000000    0.000000
      2          1           0       -3.250000    0.000000    0.000000
      3          9           0        2.950000    0.000000    0.000000
 ---------------------------------------------------------------------

 SCF Done:  E(UB3LYP) =  -100.761738053     a.u. after   20 cycles

 Alpha  occ. eigenvalues --  -24.73907  -1.19980  -0.53025  -0.44525  -0.44525
 Alpha  occ. eigenvalues --   -0.32648
 Alpha virt. eigenvalues --   -0.08691   0.24250   0.35651   0.89574   0.92382
 Alpha virt. eigenvalues --    0.92382   1.04213   1.24870   1.24870   1.25257
 Alpha virt. eigenvalues --    1.43156   1.43156   1.43548   2.15136   2.39275

  Beta  occ. eigenvalues --  -24.70892  -1.11344  -0.41509  -0.41509  -0.33872
  Beta virt. eigenvalues --   -0.24674  -0.07063   0.24277   0.37413   0.93839
  Beta virt. eigenvalues --    0.93839   0.98194   1.07917   1.23468   1.23468
  Beta virt. eigenvalues --    1.24257   1.45247   1.45480   1.45480   2.15336

 Mulliken charges and spin densities:
               1          2
     1  H    0.039904  -0.951202
     2  H    0.000922   0.996137
     3  F   -0.040826   0.955066
 Sum of Mulliken charges =  -0.00000   1.00000

 Dipole moment (field-independent basis, Debye):
    X=             -0.6327    Y=             -0.0000    Z=             -0.0000  Tot=              0.6327
 Quadrupole moment (field-independent basis, Debye-Ang):
   XX=             -8.3628   YY=             -7.6119   ZZ=             -7.6119
   XY=             -0.0000   XZ=             -0.0000   YZ=              0.0000

  Exact polarizability:      33.310      -0.000       2.024      -0.000      -0.000       2.024
 Approx polarizability:      34.193      -0.000       1.925      -0.000       0.000       1.925

 ******    2 imaginary frequencies (negative Signs) ******

                      1                      2                      3
                      A                      A                      A
 Frequencies --   -416.4112              -152.7870               150.7573
 Red. masses --      1.0396                 1.0725                 1.0192
 Frc consts  --      0.1062                 0.0148                 0.0136
 IR Inten    --     41.6433                 1.9062                 1.4641

                      4
                      A
 Frequencies --    150.7574
 Red. masses --      1.0192
 Frc consts  --      0.0136
 IR Inten    --      1.4641

 - Thermochemistry -
 -------------------
 Temperature   298.150 Kelvin.  Pressure   1.00000 Atm.
 Atom     1 has atomic number  1 and mass   1.00783

 Molecular mass:    21.01405 amu.
 Principal axes and moments of inertia in atomic units:
                           1         2         3
     Eigenvalues --     0.00000 155.21518 155.21518
           X            1.00000  -0.00000   0.00000
           Y            0.00000   1.00000   0.00000
           Z            0.00000   0.00000   1.00000
 This molecule is a prolate symmetric top.
 Rotational symmetry number  1.
 Rotational temperature (Kelvin)      0.55802
 Rotational constant (GHZ):          11.627350
    2 imaginary frequencies ignored.
 Zero-point vibrational energy       1803.5 (Joules/Mol)
                                    0.43104 (Kcal/Mol)
 Warning -- explicit consideration of   2 degrees of freedom as
           vibrations may cause significant error
 Vibrational temperatures:    216.91   216.91
          (Kelvin)

 Zero-point correction=                           0.000687 (Hartree/Particle)
 Thermal correction to Energy=                    0.004331
 Thermal correction to Enthalpy=                  0.005276
 Thermal correction to Gibbs Free Energy=        -0.021446
 Sum of electronic and zero-point Energies=           -100.761051
 Sum of electronic and thermal Energies=              -100.757407
 Sum of electronic and thermal Enthalpies=            -100.756462
 Sum of electronic and thermal Free Energies=         -100.783184

                     E (Thermal)             CV                S
                      KCal/Mol        Cal/Mol-Kelvin    Cal/Mol-Kelvin
 Total                    2.718              8.772             56.239
 Electronic               0.000              0.000              1.377
 Translational            0.889              2.981             35.068
 Rotational               0.592              1.987             14.469
 Vibrational              1.237              3.804              5.325
 Vibration     1          0.618              1.902              2.663
 Vibration     2          0.618              1.902              2.663

 Normal termination of Gaussian 16 at Fri Aug 22 19:18:43 2025.
