 Gaussian 16, Revision C.01,
 Gaussian 16:  ES64L-G16RevC.01  3-Jul-2019

 -----------------------------------------
 # sp b3lyp/6-311g** Force nosymm scf=(qc)
 -----------------------------------------

 -------------------
 Title Card Required
 -------------------
 Symbolic Z-matrix:
 Charge =  0 Multiplicity = 2

                          Input orientation:
 ---------------------------------------------------------------------
 Center     Atomic      Atomic             Coordinates (Angstroms)
 Number     Number       Type             X           Y           Z
 ---------------------------------------------------------------------
      1          1           0        0.000000    0.000000    0.000000
      2          1           0       -1.250000    0.000000    0.000000
      3          9           0        0.800000    0.000000    0.000000
 ---------------------------------------------------------------------

 SCF Done:  E(UB3LYP) =  -100.939259929     a.u. after    5 cycles

 Alpha  occ. eigenvalues --  -24.63814  -1.23656  -0.58595  -0.40879  -0.40879
 Alpha  occ. eigenvalues --   -0.36198
 Alpha virt. eigenvalues --    0.14099   0.20069   0.50560   0.92770   0.92770
 Alpha virt. eigenvalues --    0.95947   1.11525   1.11525   1.39999   1.52366
 Alpha virt. eigenvalues --    1.52366   1.61162   2.06131   2.25200   3.09779

  Beta  occ. eigenvalues --  -24.63504  -1.22823  -0.56551  -0.40618  -0.40618
  Beta virt. eigenvalues --   -0.14662   0.15376   0.26047   0.55675   0.93418
  Beta virt. eigenvalues --    0.93418   0.96584   1.20775   1.20775   1.43307
  Beta virt. eigenvalues --    1.58171   1.58171   1.70170   2.07191   2.43324

 Mulliken charges and spin densities:
               1          2
     1  H    0.258750   0.006530
     2  H    0.013658   0.929915
     3  F   -0.272408   0.063555
 Sum of Mulliken charges =   0.00000   1.00000

 Dipole moment (field-independent basis, Debye):
    X=             -1.7605    Y=              0.0000    Z=             -0.0000  Tot=              1.7605
 Quadrupole moment (field-independent basis, Debye-Ang):
   XX=             -7.3743   YY=             -6.6180   ZZ=             -6.6180
   XY=              0.0000   XZ=              0.0000   YZ=              0.0000

  Exact polarizability:       9.364       0.000       2.572       0.000      -0.000       2.572
 Approx polarizability:       9.477      -0.000       2.595      -0.000      -0.000       2.595

 ******    2 imaginary frequencies (negative Signs) ******

                      1                      2                      3
                      A                      A                      A
 Frequencies --  -2025.3719             -2025.3719              1132.3891
 Red. masses --      1.0241                 1.0241                 1.0534
 Frc consts  --      2.4753                 2.4753                 0.7959
 IR Inten    --    115.7644               115.7644                16.4200

                      4
                      A
 Frequencies --   6228.8589
 Red. masses --      1.0581
 Frc consts  --     24.1886
 IR Inten    --    140.9517

 - Thermochemistry -
 -------------------
 Temperature   298.150 Kelvin.  Pressure   1.00000 Atm.
 Atom     1 has atomic number  1 and mass   1.00783

 Molecular mass:    21.01405 amu.
 Principal axes and moments of inertia in atomic units:
                           1         2         3
     Eigenvalues --     0.00000  16.02620  16.02620
           X            1.00000  -0.00000   0.00000
           Y            0.00000   1.00000   0.00000
           Z            0.00000   0.00000   1.00000
 This molecule is a prolate symmetric top.
 Rotational symmetry number  1.
 Rotational temperature (Kelvin)      5.40452
 Rotational constant (GHZ):         112.611929
    2 imaginary frequencies ignored.
 Zero-point vibrational energy      44030.0 (Joules/Mol)
                                   10.52343 (Kcal/Mol)
 Vibrational temperatures:   1629.26  8961.94
          (Kelvin)

 Zero-point correction=                           0.016770 (Hartree/Particle)
 Thermal correction to Energy=                    0.019153
 Thermal correction to Enthalpy=                  0.020097
 Thermal correction to Gibbs Free Energy=        -0.001976
 Sum of electronic and zero-point Energies=           -100.922490
 Sum of electronic and thermal Energies=              -100.920107
 Sum of electronic and thermal Enthalpies=            -100.919163
 Sum of electronic and thermal Free Energies=         -100.941236

                     E (Thermal)             CV                S
                      KCal/Mol        Cal/Mol-Kelvin    Cal/Mol-Kelvin
 Total                   12.018              5.221             46.457
 Electronic               0.000              0.000              1.377
 Translational            0.889              2.981             35.068
 Rotational               0.592              1.987              9.957
 Vibrational             10.537              0.253              0.055

 Normal termination of Gaussian 16 at Fri Aug 22 15:50:34 2025.
