 Gaussian 16, Revision C.01,
 Gaussian 16:  ES64L-G16RevC.01  3-Jul-2019

 -----------------------------------------
 # sp b3lyp/6-311g** Force nosymm scf=(qc)
 -----------------------------------------

 -------------------
 Title Card Required
 -------------------
 Symbolic Z-matrix:
 Charge =  0 Multiplicity = 2

                          Input orientation:
 ---------------------------------------------------------------------
 Center     Atomic      Atomic             Coordinates (Angstroms)
 Number     Number       Type             X           Y           Z
 ---------------------------------------------------------------------
      1          1           0        0.000000    0.000000    0.000000
      2          1           0       -3.250000    0.000000    0.000000
      3          9           0        1.150000    0.000000    0.000000
 ---------------------------------------------------------------------

 SCF Done:  E(UB3LYP) =  -100.937419047     a.u. after    6 cycles

 Alpha  occ. eigenvalues --  -24.64307  -1.12988  -0.48643  -0.37781  -0.37781
 Alpha  occ. eigenvalues --   -0.34060
 Alpha virt. eigenvalues --   -0.04013   0.23157   0.30097   0.93370   0.93370
 Alpha virt. eigenvalues --    1.00198   1.23389   1.23462   1.23462   1.28303
 Alpha virt. eigenvalues --    1.34953   1.34953   1.75847   2.14094   2.30408

  Beta  occ. eigenvalues --  -24.64301  -1.12972  -0.48624  -0.37776  -0.37776
  Beta virt. eigenvalues --   -0.07822  -0.02668   0.28366   0.38452   0.93370
  Beta virt. eigenvalues --    0.93370   1.00213   1.28081   1.34942   1.34942
  Beta virt. eigenvalues --    1.47330   1.47330   1.47799   1.75913   2.30316

 Mulliken charges and spin densities:
               1          2
     1  H    0.346862   0.000401
     2  H    0.002041   0.997632
     3  F   -0.348903   0.001967
 Sum of Mulliken charges =   0.00000   1.00000

 Dipole moment (field-independent basis, Debye):
    X=             -2.2491    Y=              0.0000    Z=              0.0000  Tot=              2.2491
 Quadrupole moment (field-independent basis, Debye-Ang):
   XX=             -8.6511   YY=             -7.0891   ZZ=             -7.0891
   XY=              0.0000   XZ=              0.0000   YZ=             -0.0000

  Exact polarizability:       9.214       0.000       2.348      -0.000      -0.000       2.348
 Approx polarizability:      12.298       0.000       2.308       0.000       0.000       2.308

 ******    1 imaginary frequencies (negative Signs) ******

                      1                      2                      3
                      A                      A                      A
 Frequencies --    -73.0430              1202.5186              1202.5186
 Red. masses --      1.0528                 1.0336                 1.0336
 Frc consts  --      0.0033                 0.8807                 0.8807
 IR Inten    --      0.2237               149.4427               149.4427

                      4
                      A
 Frequencies --   1463.2546
 Red. masses --      1.0588
 Frc consts  --      1.3356
 IR Inten    --     78.3517

 - Thermochemistry -
 -------------------
 Temperature   298.150 Kelvin.  Pressure   1.00000 Atm.
 Atom     1 has atomic number  1 and mass   1.00783

 Molecular mass:    21.01405 amu.
 Principal axes and moments of inertia in atomic units:
                           1         2         3
     Eigenvalues --     0.00000  69.11977  69.11977
           X            1.00000  -0.00000   0.00000
           Y            0.00000   1.00000   0.00000
           Z            0.00000   0.00000   1.00000
 This molecule is a prolate symmetric top.
 Rotational symmetry number  1.
 Rotational temperature (Kelvin)      1.25310
 Rotational constant (GHZ):          26.110347
    1 imaginary frequencies ignored.
 Zero-point vibrational energy      23137.5 (Joules/Mol)
                                    5.53000 (Kcal/Mol)
 Vibrational temperatures:   1730.16  1730.16  2105.30
          (Kelvin)

 Zero-point correction=                           0.008813 (Hartree/Particle)
 Thermal correction to Energy=                    0.011212
 Thermal correction to Enthalpy=                  0.012156
 Thermal correction to Gibbs Free Energy=        -0.011316
 Sum of electronic and zero-point Energies=           -100.928606
 Sum of electronic and thermal Energies=              -100.926207
 Sum of electronic and thermal Enthalpies=            -100.925263
 Sum of electronic and thermal Free Energies=         -100.948735

                     E (Thermal)             CV                S
                      KCal/Mol        Cal/Mol-Kelvin    Cal/Mol-Kelvin
 Total                    7.036              5.460             49.402
 Electronic               0.000              0.000              1.377
 Translational            0.889              2.981             35.068
 Rotational               0.592              1.987             12.861
 Vibrational              5.554              0.492              0.096

 Normal termination of Gaussian 16 at Fri Aug 22 16:08:34 2025.
