 Gaussian 16, Revision C.01,
 Gaussian 16:  ES64L-G16RevC.01  3-Jul-2019

 -----------------------------------------
 # sp b3lyp/6-311g** Force nosymm scf=(qc)
 -----------------------------------------

 -------------------
 Title Card Required
 -------------------
 Symbolic Z-matrix:
 Charge =  0 Multiplicity = 2

                          Input orientation:
 ---------------------------------------------------------------------
 Center     Atomic      Atomic             Coordinates (Angstroms)
 Number     Number       Type             X           Y           Z
 ---------------------------------------------------------------------
      1          1           0        0.000000    0.000000    0.000000
      2          1           0       -1.100000    0.000000    0.000000
      3          9           0        2.200000    0.000000    0.000000
 ---------------------------------------------------------------------

 SCF Done:  E(UB3LYP) =  -100.892308609     a.u. after   12 cycles

 Alpha  occ. eigenvalues --  -24.74207  -1.20295  -0.53632  -0.44824  -0.44824
 Alpha  occ. eigenvalues --   -0.39386
 Alpha virt. eigenvalues --   -0.02154   0.21759   0.36556   0.88855   0.91683
 Alpha virt. eigenvalues --    0.91683   1.08963   1.08963   1.09226   1.36277
 Alpha virt. eigenvalues --    1.58066   1.58066   2.15181   2.32425   2.55088

  Beta  occ. eigenvalues --  -24.71227  -1.11792  -0.41850  -0.41850  -0.39133
  Beta virt. eigenvalues --   -0.25527  -0.01172   0.22306   0.37013   0.93068
  Beta virt. eigenvalues --    0.93068   0.96592   1.09627   1.09627   1.12322
  Beta virt. eigenvalues --    1.38346   1.58561   1.58561   2.16055   2.33169

 Mulliken charges and spin densities:
               1          2
     1  H    0.009752  -0.053673
     2  H    0.036272   0.115131
     3  F   -0.046024   0.938542
 Sum of Mulliken charges =   0.00000   1.00000

 Dipole moment (field-independent basis, Debye):
    X=             -0.6886    Y=              0.0000    Z=              0.0000  Tot=              0.6886
 Quadrupole moment (field-independent basis, Debye-Ang):
   XX=             -6.3504   YY=             -7.3342   ZZ=             -7.3342
   XY=              0.0000   XZ=              0.0000   YZ=             -0.0000

  Exact polarizability:      34.198       0.000       2.140      -0.000      -0.000       2.140
 Approx polarizability:      43.678      -0.000       2.155      -0.000       0.000       2.155

 ******    1 imaginary frequencies (negative Signs) ******

                      1                      2                      3
                      A                      A                      A
 Frequencies --   -498.9280               712.7209              1462.2387
 Red. masses --      1.0882                 1.0252                 1.0117
 Frc consts  --      0.1596                 0.3068                 1.2745
 IR Inten    --    242.3972               275.8291                 0.0332

                      4
                      A
 Frequencies --   1462.2387
 Red. masses --      1.0117
 Frc consts  --      1.2745
 IR Inten    --      0.0332

 - Thermochemistry -
 -------------------
 Temperature   298.150 Kelvin.  Pressure   1.00000 Atm.
 Atom     1 has atomic number  1 and mass   1.00783

 Molecular mass:    21.01405 amu.
 Principal axes and moments of inertia in atomic units:
                           1         2         3
     Eigenvalues --     0.00000  51.39105  51.39105
           X            1.00000  -0.00000   0.00000
           Y            0.00000   1.00000   0.00000
           Z            0.00000   0.00000   1.00000
 This molecule is a prolate symmetric top.
 Rotational symmetry number  1.
 Rotational temperature (Kelvin)      1.68539
 Rotational constant (GHZ):          35.117815
    1 imaginary frequencies ignored.
 Zero-point vibrational energy      21755.3 (Joules/Mol)
                                    5.19964 (Kcal/Mol)
 Vibrational temperatures:   1025.45  2103.84  2103.84
          (Kelvin)

 Zero-point correction=                           0.008286 (Hartree/Particle)
 Thermal correction to Energy=                    0.010766
 Thermal correction to Enthalpy=                  0.011710
 Thermal correction to Gibbs Free Energy=        -0.011589
 Sum of electronic and zero-point Energies=           -100.884022
 Sum of electronic and thermal Energies=              -100.881543
 Sum of electronic and thermal Enthalpies=            -100.880599
 Sum of electronic and thermal Free Energies=         -100.903898

                     E (Thermal)             CV                S
                      KCal/Mol        Cal/Mol-Kelvin    Cal/Mol-Kelvin
 Total                    6.756              5.944             49.037
 Electronic               0.000              0.000              1.377
 Translational            0.889              2.981             35.068
 Rotational               0.592              1.987             12.272
 Vibrational              5.274              0.976              0.319

 Normal termination of Gaussian 16 at Fri Aug 22 17:10:47 2025.
