 Gaussian 16, Revision C.01,
 Gaussian 16:  ES64L-G16RevC.01  3-Jul-2019

 -----------------------------------------
 # sp b3lyp/6-311g** Force nosymm scf=(qc)
 -----------------------------------------

 -------------------
 Title Card Required
 -------------------
 Symbolic Z-matrix:
 Charge =  0 Multiplicity = 2

                          Input orientation:
 ---------------------------------------------------------------------
 Center     Atomic      Atomic             Coordinates (Angstroms)
 Number     Number       Type             X           Y           Z
 ---------------------------------------------------------------------
      1          1           0        0.000000    0.000000    0.000000
      2          1           0       -1.700000    0.000000    0.000000
      3          9           0        4.000000    0.000000    0.000000
 ---------------------------------------------------------------------

 SCF Done:  E(UB3LYP) =  -100.794714040     a.u. after   34 cycles

 Alpha  occ. eigenvalues --  -24.76171  -1.22078  -0.55283  -0.46453  -0.46440
 Alpha  occ. eigenvalues --   -0.33078
 Alpha virt. eigenvalues --   -0.10567   0.25733   0.31023   0.86077   0.90954
 Alpha virt. eigenvalues --    0.91239   1.00868   1.07634   1.23838   1.23839
 Alpha virt. eigenvalues --    1.38279   1.38281   1.67620   2.16883   2.41325

  Beta  occ. eigenvalues --  -24.73017  -1.13006  -0.43292  -0.43277  -0.33070
  Beta virt. eigenvalues --   -0.25935  -0.10594   0.25731   0.31027   0.92456
  Beta virt. eigenvalues --    0.92716   0.95545   1.05013   1.07630   1.23836
  Beta virt. eigenvalues --    1.23838   1.38270   1.38271   1.67626   2.16959

 Mulliken charges and spin densities:
               1          2
     1  H    0.000880  -0.612275
     2  H   -0.001476   0.612268
     3  F    0.000596   1.000007
 Sum of Mulliken charges =   0.00000   1.00000

 Dipole moment (field-independent basis, Debye):
    X=              0.0190    Y=              0.0000    Z=             -0.0000  Tot=              0.0190
 Quadrupole moment (field-independent basis, Debye-Ang):
   XX=             -6.6195   YY=             -7.3343   ZZ=             -7.3363
   XY=              0.0000   XZ=             -0.0000   YZ=             -0.4324

  Exact polarizability:      23.707       0.000       2.253      -0.000      -0.233       2.252
 Approx polarizability:      37.698       0.000       2.272      -0.000      -0.291       2.270

 ******    2 imaginary frequencies (negative Signs) ******

                      1                      2                      3
                      A                      A                      A
 Frequencies --  -1906.6951               -54.3937               909.3116
 Red. masses --      1.0078                 1.1085                 1.0108
 Frc consts  --      2.1587                 0.0019                 0.4924
 IR Inten    --      0.0052                 0.0249                 0.0013

                      4
                      A
 Frequencies --    909.3560
 Red. masses --      1.0108
 Frc consts  --      0.4925
 IR Inten    --      0.0012

 - Thermochemistry -
 -------------------
 Temperature   298.150 Kelvin.  Pressure   1.00000 Atm.
 Atom     1 has atomic number  1 and mass   1.00783

 Molecular mass:    21.01405 amu.
 Principal axes and moments of inertia in atomic units:
                           1         2         3
     Eigenvalues --     0.00000 158.27534 158.27534
           X            1.00000  -0.00000   0.00000
           Y            0.00000   1.00000   0.00000
           Z            0.00000   0.00000   1.00000
 This molecule is a prolate symmetric top.
 Rotational symmetry number  1.
 Rotational temperature (Kelvin)      0.54724
 Rotational constant (GHZ):          11.402542
    2 imaginary frequencies ignored.
 Zero-point vibrational energy      10878.0 (Joules/Mol)
                                    2.59992 (Kcal/Mol)
 Vibrational temperatures:   1308.30  1308.36
          (Kelvin)

 Zero-point correction=                           0.004143 (Hartree/Particle)
 Thermal correction to Energy=                    0.006608
 Thermal correction to Enthalpy=                  0.007552
 Thermal correction to Gibbs Free Energy=        -0.016785
 Sum of electronic and zero-point Energies=           -100.790571
 Sum of electronic and thermal Energies=              -100.788106
 Sum of electronic and thermal Enthalpies=            -100.787162
 Sum of electronic and thermal Free Energies=         -100.811499

                     E (Thermal)             CV                S
                      KCal/Mol        Cal/Mol-Kelvin    Cal/Mol-Kelvin
 Total                    4.147              5.943             51.222
 Electronic               0.000              0.000              1.377
 Translational            0.889              2.981             35.068
 Rotational               0.592              1.987             14.508
 Vibrational              2.665              0.975              0.269

 Normal termination of Gaussian 16 at Sat Aug 23 01:50:30 2025.
