 Gaussian 16, Revision C.01,
 Gaussian 16:  ES64L-G16RevC.01  3-Jul-2019

 -----------------------------------------
 # sp b3lyp/6-311g** Force nosymm scf=(qc)
 -----------------------------------------

 -------------------
 Title Card Required
 -------------------
 Symbolic Z-matrix:
 Charge =  0 Multiplicity = 2

                          Input orientation:
 ---------------------------------------------------------------------
 Center     Atomic      Atomic             Coordinates (Angstroms)
 Number     Number       Type             X           Y           Z
 ---------------------------------------------------------------------
      1          1           0        0.000000    0.000000    0.000000
      2          1           0       -1.400000    0.000000    0.000000
      3          9           0        1.500000    0.000000    0.000000
 ---------------------------------------------------------------------

 SCF Done:  E(UB3LYP) =  -100.884259913     a.u. after   15 cycles

 Alpha  occ. eigenvalues --  -24.65553  -1.12383  -0.48202  -0.38848  -0.37814
 Alpha  occ. eigenvalues --   -0.37814
 Alpha virt. eigenvalues --   -0.05231   0.20547   0.29559   0.92957   0.92957
 Alpha virt. eigenvalues --    0.98098   1.03560   1.13365   1.13365   1.43370
 Alpha virt. eigenvalues --    1.43370   1.50436   1.91858   2.20384   2.45577

  Beta  occ. eigenvalues --  -24.63945  -1.08057  -0.41776  -0.36270  -0.36270
  Beta virt. eigenvalues --   -0.22248  -0.01947   0.23486   0.30787   0.93192
  Beta virt. eigenvalues --    0.93192   1.03188   1.06579   1.19067   1.19067
  Beta virt. eigenvalues --    1.45231   1.45231   1.54926   1.96033   2.24325

 Mulliken charges and spin densities:
               1          2
     1  H    0.225546  -0.200658
     2  H    0.072270   0.704287
     3  F   -0.297816   0.496371
 Sum of Mulliken charges =   0.00000   1.00000

 Dipole moment (field-independent basis, Debye):
    X=             -2.6814    Y=              0.0000    Z=              0.0000  Tot=              2.6814
 Quadrupole moment (field-independent basis, Debye-Ang):
   XX=             -8.0376   YY=             -7.2075   ZZ=             -7.2075
   XY=              0.0000   XZ=              0.0000   YZ=              0.0000

  Exact polarizability:      35.089       0.000       2.321       0.000       0.000       2.321
 Approx polarizability:      52.154      -0.000       2.269       0.000      -0.000       2.269

 ******    2 imaginary frequencies (negative Signs) ******

                      1                      2                      3
                      A                      A                      A
 Frequencies --  -2674.7710              -330.5590              1114.1211
 Red. masses --      1.0224                 1.0914                 1.0171
 Frc consts  --      4.3096                 0.0703                 0.7439
 IR Inten    --    508.0835                10.2783                21.5501

                      4
                      A
 Frequencies --   1114.1211
 Red. masses --      1.0171
 Frc consts  --      0.7439
 IR Inten    --     21.5501

 - Thermochemistry -
 -------------------
 Temperature   298.150 Kelvin.  Pressure   1.00000 Atm.
 Atom     1 has atomic number  1 and mass   1.00783

 Molecular mass:    21.01405 amu.
 Principal axes and moments of inertia in atomic units:
                           1         2         3
     Eigenvalues --     0.00000  35.02376  35.02376
           X            1.00000  -0.00000   0.00000
           Y            0.00000   1.00000   0.00000
           Z            0.00000   0.00000   1.00000
 This molecule is a prolate symmetric top.
 Rotational symmetry number  1.
 Rotational temperature (Kelvin)      2.47300
 Rotational constant (GHZ):          51.529052
    2 imaginary frequencies ignored.
 Zero-point vibrational energy      13327.8 (Joules/Mol)
                                    3.18543 (Kcal/Mol)
 Vibrational temperatures:   1602.97  1602.97
          (Kelvin)

 Zero-point correction=                           0.005076 (Hartree/Particle)
 Thermal correction to Energy=                    0.007484
 Thermal correction to Enthalpy=                  0.008428
 Thermal correction to Gibbs Free Energy=        -0.014413
 Sum of electronic and zero-point Energies=           -100.879184
 Sum of electronic and thermal Energies=              -100.876776
 Sum of electronic and thermal Enthalpies=            -100.875832
 Sum of electronic and thermal Free Energies=         -100.898673

                     E (Thermal)             CV                S
                      KCal/Mol        Cal/Mol-Kelvin    Cal/Mol-Kelvin
 Total                    4.696              5.504             48.073
 Electronic               0.000              0.000              1.377
 Translational            0.889              2.981             35.068
 Rotational               0.592              1.987             11.510
 Vibrational              3.215              0.536              0.118

 Normal termination of Gaussian 16 at Fri Aug 22 16:24:58 2025.
