 Gaussian 16, Revision C.01,
 Gaussian 16:  ES64L-G16RevC.01  3-Jul-2019

 -----------------------------------------
 # sp b3lyp/6-311g** Force nosymm scf=(qc)
 -----------------------------------------

 -------------------
 Title Card Required
 -------------------
 Symbolic Z-matrix:
 Charge =  0 Multiplicity = 2

                          Input orientation:
 ---------------------------------------------------------------------
 Center     Atomic      Atomic             Coordinates (Angstroms)
 Number     Number       Type             X           Y           Z
 ---------------------------------------------------------------------
      1          1           0        0.000000    0.000000    0.000000
      2          1           0       -3.700000    0.000000    0.000000
      3          9           0        1.800000    0.000000    0.000000
 ---------------------------------------------------------------------

 SCF Done:  E(UB3LYP) =  -100.797086385     a.u. after   10 cycles

 Alpha  occ. eigenvalues --  -24.64182  -1.08615  -0.40050  -0.35866  -0.35866
 Alpha  occ. eigenvalues --   -0.33878
 Alpha virt. eigenvalues --   -0.20480   0.19758   0.27161   0.92883   0.95667
 Alpha virt. eigenvalues --    0.95667   1.07841   1.23611   1.23625   1.23625
 Alpha virt. eigenvalues --    1.25979   1.25979   1.65618   2.12157   2.16327

  Beta  occ. eigenvalues --  -24.64188  -1.08631  -0.40052  -0.35871  -0.35871
  Beta virt. eigenvalues --   -0.20515  -0.06726   0.22477   0.38027   0.92913
  Beta virt. eigenvalues --    0.95671   0.95671   1.07846   1.26042   1.26042
  Beta virt. eigenvalues --    1.45696   1.46113   1.46113   1.65671   2.14865

 Mulliken charges and spin densities:
               1          2
     1  H    0.313969   0.003611
     2  H    0.001789   0.998142
     3  F   -0.315757  -0.001752
 Sum of Mulliken charges =   0.00000   1.00000

 Dipole moment (field-independent basis, Debye):
    X=             -2.8542    Y=              0.0000    Z=             -0.0000  Tot=              2.8542
 Quadrupole moment (field-independent basis, Debye-Ang):
   XX=            -11.0478   YY=             -7.4591   ZZ=             -7.4591
   XY=              0.0000   XZ=              0.0000   YZ=             -0.0000

  Exact polarizability:      22.468       0.000       2.067      -0.000      -0.000       2.067
 Approx polarizability:      58.775       0.000       1.975       0.000       0.000       1.975

 ******    2 imaginary frequencies (negative Signs) ******

                      1                      2                      3
                      A                      A                      A
 Frequencies --  -1159.9073               -79.7633               799.9266
 Red. masses --      1.0576                 1.0539                 1.0285
 Frc consts  --      0.8384                 0.0040                 0.3878
 IR Inten    --     33.2149                 0.3007                95.6299

                      4
                      A
 Frequencies --    799.9266
 Red. masses --      1.0285
 Frc consts  --      0.3878
 IR Inten    --     95.6299

 - Thermochemistry -
 -------------------
 Temperature   298.150 Kelvin.  Pressure   1.00000 Atm.
 Atom     1 has atomic number  1 and mass   1.00783

 Molecular mass:    21.01405 amu.
 Principal axes and moments of inertia in atomic units:
                           1         2         3
     Eigenvalues --     0.00000 111.33257 111.33257
           X            1.00000  -0.00000   0.00000
           Y            0.00000   1.00000   0.00000
           Z            0.00000   0.00000   1.00000
 This molecule is a prolate symmetric top.
 Rotational symmetry number  1.
 Rotational temperature (Kelvin)      0.77797
 Rotational constant (GHZ):          16.210361
    2 imaginary frequencies ignored.
 Zero-point vibrational energy       9569.2 (Joules/Mol)
                                    2.28710 (Kcal/Mol)
 Vibrational temperatures:   1150.92  1150.92
          (Kelvin)

 Zero-point correction=                           0.003645 (Hartree/Particle)
 Thermal correction to Energy=                    0.006162
 Thermal correction to Enthalpy=                  0.007106
 Thermal correction to Gibbs Free Energy=        -0.016968
 Sum of electronic and zero-point Energies=           -100.793442
 Sum of electronic and thermal Energies=              -100.790924
 Sum of electronic and thermal Enthalpies=            -100.789980
 Sum of electronic and thermal Free Energies=         -100.814054

                     E (Thermal)             CV                S
                      KCal/Mol        Cal/Mol-Kelvin    Cal/Mol-Kelvin
 Total                    3.867              6.270             50.669
 Electronic               0.000              0.000              1.377
 Translational            0.889              2.981             35.068
 Rotational               0.592              1.987             13.808
 Vibrational              2.386              1.302              0.415

 Normal termination of Gaussian 16 at Fri Aug 22 16:45:09 2025.
