 Gaussian 16, Revision C.01,
 Gaussian 16:  ES64L-G16RevC.01  3-Jul-2019

 -----------------------------------------
 # sp b3lyp/6-311g** Force nosymm scf=(qc)
 -----------------------------------------

 -------------------
 Title Card Required
 -------------------
 Symbolic Z-matrix:
 Charge =  0 Multiplicity = 2

                          Input orientation:
 ---------------------------------------------------------------------
 Center     Atomic      Atomic             Coordinates (Angstroms)
 Number     Number       Type             X           Y           Z
 ---------------------------------------------------------------------
      1          1           0        0.000000    0.000000    0.000000
      2          1           0       -2.450000    0.000000    0.000000
      3          9           0        3.950000    0.000000    0.000000
 ---------------------------------------------------------------------

 SCF Done:  E(UB3LYP) =  -100.763094018     a.u. after   64 cycles

 Alpha  occ. eigenvalues --  -24.75893  -1.21820  -0.55018  -0.46197  -0.46197
 Alpha  occ. eigenvalues --   -0.32557
 Alpha virt. eigenvalues --   -0.09353   0.25849   0.34638   0.86603   0.91157
 Alpha virt. eigenvalues --    0.91157   1.01087   1.25118   1.25118   1.26535
 Alpha virt. eigenvalues --    1.41477   1.41477   1.43469   2.15732   2.36416

  Beta  occ. eigenvalues --  -24.72748  -1.12777  -0.43044  -0.43044  -0.32684
  Beta virt. eigenvalues --   -0.25751  -0.09158   0.25698   0.34898   0.92655
  Beta virt. eigenvalues --    0.92655   0.95981   1.05217   1.24979   1.24979
  Beta virt. eigenvalues --    1.26384   1.41753   1.41753   1.43735   2.15838

 Mulliken charges and spin densities:
               1          2
     1  H    0.001442  -0.961864
     2  H    0.001058   0.964729
     3  F   -0.002500   0.997134
 Sum of Mulliken charges =   0.00000   1.00000

 Dipole moment (field-independent basis, Debye):
    X=             -0.0631    Y=             -0.0000    Z=             -0.0000  Tot=              0.0631
 Quadrupole moment (field-independent basis, Debye-Ang):
   XX=             -6.6721   YY=             -7.6719   ZZ=             -7.6719
   XY=             -0.0000   XZ=             -0.0000   YZ=              0.0000

  Exact polarizability:      20.982      -0.000       2.020      -0.000       0.000       2.020
 Approx polarizability:      16.262      -0.000       1.931      -0.000      -0.000       1.931

 ******    2 imaginary frequencies (negative Signs) ******

                      1                      2                      3
                      A                      A                      A
 Frequencies --   -709.0437               -76.7143               264.9175
 Red. masses --      1.0078                 1.1085                 1.0132
 Frc consts  --      0.2985                 0.0038                 0.0419
 IR Inten    --      0.6413                 0.7837                 0.0010

                      4
                      A
 Frequencies --    264.9175
 Red. masses --      1.0132
 Frc consts  --      0.0419
 IR Inten    --      0.0010

 - Thermochemistry -
 -------------------
 Temperature   298.150 Kelvin.  Pressure   1.00000 Atm.
 Atom     1 has atomic number  1 and mass   1.00783

 Molecular mass:    21.01405 amu.
 Principal axes and moments of inertia in atomic units:
                           1         2         3
     Eigenvalues --     0.00000 185.07884 185.07884
           X            1.00000  -0.00000   0.00000
           Y            0.00000   1.00000   0.00000
           Z            0.00000   0.00000   1.00000
 This molecule is a prolate symmetric top.
 Rotational symmetry number  1.
 Rotational temperature (Kelvin)      0.46798
 Rotational constant (GHZ):           9.751202
    2 imaginary frequencies ignored.
 Zero-point vibrational energy       3169.1 (Joules/Mol)
                                    0.75744 (Kcal/Mol)
 Warning -- explicit consideration of   2 degrees of freedom as
           vibrations may cause significant error
 Vibrational temperatures:    381.16   381.16
          (Kelvin)

 Zero-point correction=                           0.001207 (Hartree/Particle)
 Thermal correction to Energy=                    0.004499
 Thermal correction to Enthalpy=                  0.005443
 Thermal correction to Gibbs Free Energy=        -0.020462
 Sum of electronic and zero-point Energies=           -100.761887
 Sum of electronic and thermal Energies=              -100.758595
 Sum of electronic and thermal Enthalpies=            -100.757651
 Sum of electronic and thermal Free Energies=         -100.783556

                     E (Thermal)             CV                S
                      KCal/Mol        Cal/Mol-Kelvin    Cal/Mol-Kelvin
 Total                    2.823              8.443             54.522
 Electronic               0.000              0.000              1.377
 Translational            0.889              2.981             35.068
 Rotational               0.592              1.987             14.818
 Vibrational              1.342              3.475              3.258
 Vibration     1          0.671              1.737              1.629
 Vibration     2          0.671              1.737              1.629

 Normal termination of Gaussian 16 at Sat Aug 23 01:39:27 2025.
