 Gaussian 16, Revision C.01,
 Gaussian 16:  ES64L-G16RevC.01  3-Jul-2019

 -----------------------------------------
 # sp b3lyp/6-311g** Force nosymm scf=(qc)
 -----------------------------------------

 -------------------
 Title Card Required
 -------------------
 Symbolic Z-matrix:
 Charge =  0 Multiplicity = 2

                          Input orientation:
 ---------------------------------------------------------------------
 Center     Atomic      Atomic             Coordinates (Angstroms)
 Number     Number       Type             X           Y           Z
 ---------------------------------------------------------------------
      1          1           0        0.000000    0.000000    0.000000
      2          1           0       -2.700000    0.000000    0.000000
      3          9           0        1.600000    0.000000    0.000000
 ---------------------------------------------------------------------

 SCF Done:  E(UB3LYP) =  -100.835312948     a.u. after   11 cycles

 Alpha  occ. eigenvalues --  -24.64742  -1.10476  -0.43408  -0.36697  -0.36697
 Alpha  occ. eigenvalues --   -0.35241
 Alpha virt. eigenvalues --   -0.14770   0.22464   0.27693   0.94313   0.94313
 Alpha virt. eigenvalues --    1.00751   1.07646   1.22300   1.22300   1.23842
 Alpha virt. eigenvalues --    1.32418   1.32418   1.74979   2.13343   2.21720

  Beta  occ. eigenvalues --  -24.63837  -1.08047  -0.41181  -0.35829  -0.35829
  Beta virt. eigenvalues --   -0.17422  -0.08606   0.23802   0.35843   0.94012
  Beta virt. eigenvalues --    0.94012   1.01964   1.07947   1.27820   1.27820
  Beta virt. eigenvalues --    1.42888   1.42888   1.43202   1.73133   2.14956

 Mulliken charges and spin densities:
               1          2
     1  H    0.316050  -0.269094
     2  H    0.013803   0.983489
     3  F   -0.329853   0.285605
 Sum of Mulliken charges =  -0.00000   1.00000

 Dipole moment (field-independent basis, Debye):
    X=             -2.7551    Y=              0.0000    Z=             -0.0000  Tot=              2.7551
 Quadrupole moment (field-independent basis, Debye-Ang):
   XX=             -9.6803   YY=             -7.3791   ZZ=             -7.3791
   XY=             -0.0000   XZ=             -0.0000   YZ=             -0.0000

  Exact polarizability:      25.467      -0.000       2.156       0.000      -0.000       2.156
 Approx polarizability:      38.628      -0.000       2.070       0.000      -0.000       2.070

 ******    2 imaginary frequencies (negative Signs) ******

                      1                      2                      3
                      A                      A                      A
 Frequencies --  -1886.4520              -251.8161               891.7012
 Red. masses --      1.0539                 1.0577                 1.0253
 Frc consts  --      2.2096                 0.0395                 0.4803
 IR Inten    --     29.5549                 4.8167                88.0717

                      4
                      A
 Frequencies --    891.7012
 Red. masses --      1.0253
 Frc consts  --      0.4803
 IR Inten    --     88.0717

 - Thermochemistry -
 -------------------
 Temperature   298.150 Kelvin.  Pressure   1.00000 Atm.
 Atom     1 has atomic number  1 and mass   1.00783

 Molecular mass:    21.01405 amu.
 Principal axes and moments of inertia in atomic units:
                           1         2         3
     Eigenvalues --     0.00000  69.75068  69.75068
           X            1.00000  -0.00000   0.00000
           Y            0.00000   1.00000   0.00000
           Z            0.00000   0.00000   1.00000
 This molecule is a prolate symmetric top.
 Rotational symmetry number  1.
 Rotational temperature (Kelvin)      1.24176
 Rotational constant (GHZ):          25.874172
    2 imaginary frequencies ignored.
 Zero-point vibrational energy      10667.1 (Joules/Mol)
                                    2.54950 (Kcal/Mol)
 Vibrational temperatures:   1282.96  1282.96
          (Kelvin)

 Zero-point correction=                           0.004063 (Hartree/Particle)
 Thermal correction to Energy=                    0.006535
 Thermal correction to Enthalpy=                  0.007479
 Thermal correction to Gibbs Free Energy=        -0.016094
 Sum of electronic and zero-point Energies=           -100.831250
 Sum of electronic and thermal Energies=              -100.828778
 Sum of electronic and thermal Enthalpies=            -100.827834
 Sum of electronic and thermal Free Energies=         -100.851407

                     E (Thermal)             CV                S
                      KCal/Mol        Cal/Mol-Kelvin    Cal/Mol-Kelvin
 Total                    4.101              5.991             49.613
 Electronic               0.000              0.000              1.377
 Translational            0.889              2.981             35.068
 Rotational               0.592              1.987             12.879
 Vibrational              2.619              1.023              0.289

 Normal termination of Gaussian 16 at Fri Aug 22 16:31:48 2025.
