 Gaussian 16, Revision C.01,
 Gaussian 16:  ES64L-G16RevC.01  3-Jul-2019

 -----------------------------------------
 # sp b3lyp/6-311g** Force nosymm scf=(qc)
 -----------------------------------------

 -------------------
 Title Card Required
 -------------------
 Symbolic Z-matrix:
 Charge =  0 Multiplicity = 2

                          Input orientation:
 ---------------------------------------------------------------------
 Center     Atomic      Atomic             Coordinates (Angstroms)
 Number     Number       Type             X           Y           Z
 ---------------------------------------------------------------------
      1          1           0        0.000000    0.000000    0.000000
      2          1           0       -1.950000    0.000000    0.000000
      3          9           0        2.650000    0.000000    0.000000
 ---------------------------------------------------------------------

 SCF Done:  E(UB3LYP) =  -100.781799364     a.u. after   21 cycles

 Alpha  occ. eigenvalues --  -24.72819  -1.18958  -0.51934  -0.43605  -0.43605
 Alpha  occ. eigenvalues --   -0.34535
 Alpha virt. eigenvalues --   -0.12445   0.25002   0.31740   0.90255   0.93028
 Alpha virt. eigenvalues --    0.93028   1.05506   1.16971   1.23395   1.23395
 Alpha virt. eigenvalues --    1.35539   1.35539   1.51467   2.11708   2.36321

  Beta  occ. eigenvalues --  -24.69892  -1.10597  -0.40680  -0.40680  -0.34692
  Beta virt. eigenvalues --   -0.24165  -0.11581   0.26400   0.31769   0.94445
  Beta virt. eigenvalues --    0.94445   0.97994   1.08642   1.18613   1.23254
  Beta virt. eigenvalues --    1.23254   1.36886   1.36886   1.52309   2.12703

 Mulliken charges and spin densities:
               1          2
     1  H    0.038177  -0.768944
     2  H    0.025982   0.842684
     3  F   -0.064159   0.926260
 Sum of Mulliken charges =   0.00000   1.00000

 Dipole moment (field-independent basis, Debye):
    X=             -1.1111    Y=             -0.0000    Z=              0.0000  Tot=              1.1111
 Quadrupole moment (field-independent basis, Debye-Ang):
   XX=             -7.8315   YY=             -7.6864   ZZ=             -7.6864
   XY=             -0.0000   XZ=              0.0000   YZ=              0.0000

  Exact polarizability:      61.475      -0.000       2.006       0.000      -0.000       2.006
 Approx polarizability:      64.316       0.000       1.933      -0.000      -0.000       1.933

 ******    2 imaginary frequencies (negative Signs) ******

                      1                      2                      3
                      A                      A                      A
 Frequencies --  -1471.6974              -339.0854               601.1845
 Red. masses --      1.0084                 1.1078                 1.0147
 Frc consts  --      1.2869                 0.0750                 0.2161
 IR Inten    --     76.8313                46.0591                 0.6461

                      4
                      A
 Frequencies --    601.1845
 Red. masses --      1.0147
 Frc consts  --      0.2161
 IR Inten    --      0.6461

 - Thermochemistry -
 -------------------
 Temperature   298.150 Kelvin.  Pressure   1.00000 Atm.
 Atom     1 has atomic number  1 and mass   1.00783

 Molecular mass:    21.01405 amu.
 Principal axes and moments of inertia in atomic units:
                           1         2         3
     Eigenvalues --     0.00000  92.35641  92.35641
           X            1.00000  -0.00000   0.00000
           Y            0.00000   1.00000   0.00000
           Z            0.00000   0.00000   1.00000
 This molecule is a prolate symmetric top.
 Rotational symmetry number  1.
 Rotational temperature (Kelvin)      0.93782
 Rotational constant (GHZ):          19.541050
    2 imaginary frequencies ignored.
 Zero-point vibrational energy       7191.8 (Joules/Mol)
                                    1.71887 (Kcal/Mol)
 Warning -- explicit consideration of   2 degrees of freedom as
           vibrations may cause significant error
 Vibrational temperatures:    864.97   864.97
          (Kelvin)

 Zero-point correction=                           0.002739 (Hartree/Particle)
 Thermal correction to Energy=                    0.005418
 Thermal correction to Enthalpy=                  0.006362
 Thermal correction to Gibbs Free Energy=        -0.017764
 Sum of electronic and zero-point Energies=           -100.779060
 Sum of electronic and thermal Energies=              -100.776381
 Sum of electronic and thermal Enthalpies=            -100.775437
 Sum of electronic and thermal Free Energies=         -100.799563

                     E (Thermal)             CV                S
                      KCal/Mol        Cal/Mol-Kelvin    Cal/Mol-Kelvin
 Total                    3.400              7.027             50.778
 Electronic               0.000              0.000              1.377
 Translational            0.889              2.981             35.068
 Rotational               0.592              1.987             13.437
 Vibrational              1.919              2.059              0.895
 Vibration     1          0.959              1.029              0.448
 Vibration     2          0.959              1.029              0.448

 Normal termination of Gaussian 16 at Fri Aug 22 18:14:16 2025.
