 Gaussian 16, Revision C.01,
 Gaussian 16:  ES64L-G16RevC.01  3-Jul-2019

 -----------------------------------------
 # sp b3lyp/6-311g** Force nosymm scf=(qc)
 -----------------------------------------

 -------------------
 Title Card Required
 -------------------
 Symbolic Z-matrix:
 Charge =  0 Multiplicity = 2

                          Input orientation:
 ---------------------------------------------------------------------
 Center     Atomic      Atomic             Coordinates (Angstroms)
 Number     Number       Type             X           Y           Z
 ---------------------------------------------------------------------
      1          1           0        0.000000    0.000000    0.000000
      2          1           0       -3.500000    0.000000    0.000000
      3          9           0        3.000000    0.000000    0.000000
 ---------------------------------------------------------------------

 SCF Done:  E(UB3LYP) =  -100.761078130     a.u. after   23 cycles

 Alpha  occ. eigenvalues --  -24.74083  -1.20143  -0.53202  -0.44673  -0.44673
 Alpha  occ. eigenvalues --   -0.32543
 Alpha virt. eigenvalues --   -0.08166   0.24022   0.36086   0.89381   0.92277
 Alpha virt. eigenvalues --    0.92277   1.03900   1.24963   1.24963   1.25123
 Alpha virt. eigenvalues --    1.43925   1.43925   1.44220   2.14817   2.40033

  Beta  occ. eigenvalues --  -24.71056  -1.11468  -0.41643  -0.41643  -0.33734
  Beta virt. eigenvalues --   -0.24773  -0.06574   0.23970   0.37873   0.93738
  Beta virt. eigenvalues --    0.93738   0.98067   1.07627   1.23599   1.23599
  Beta virt. eigenvalues --    1.24076   1.45817   1.46074   1.46074   2.14981

 Mulliken charges and spin densities:
               1          2
     1  H    0.036720  -0.957139
     2  H    0.000449   0.997935
     3  F   -0.037169   0.959204
 Sum of Mulliken charges =  -0.00000   1.00000

 Dipole moment (field-independent basis, Debye):
    X=             -0.5802    Y=              0.0000    Z=             -0.0000  Tot=              0.5802
 Quadrupole moment (field-independent basis, Debye-Ang):
   XX=             -8.3049   YY=             -7.6095   ZZ=             -7.6095
   XY=              0.0000   XZ=             -0.0000   YZ=              0.0000

  Exact polarizability:      31.875       0.000       2.026      -0.000       0.000       2.026
 Approx polarizability:      32.406       0.000       1.926      -0.000      -0.000       1.926

 ******    2 imaginary frequencies (negative Signs) ******

                      1                      2                      3
                      A                      A                      A
 Frequencies --   -379.0731              -117.7967               133.8164
 Red. masses --      1.0464                 1.0653                 1.0199
 Frc consts  --      0.0886                 0.0087                 0.0108
 IR Inten    --     39.2022                 0.6579                 1.2620

                      4
                      A
 Frequencies --    133.8164
 Red. masses --      1.0199
 Frc consts  --      0.0108
 IR Inten    --      1.2620

 - Thermochemistry -
 -------------------
 Temperature   298.150 Kelvin.  Pressure   1.00000 Atm.
 Atom     1 has atomic number  1 and mass   1.00783

 Molecular mass:    21.01405 amu.
 Principal axes and moments of inertia in atomic units:
                           1         2         3
     Eigenvalues --     0.00000 168.87141 168.87141
           X            1.00000  -0.00000   0.00000
           Y            0.00000   1.00000   0.00000
           Z            0.00000   0.00000   1.00000
 This molecule is a prolate symmetric top.
 Rotational symmetry number  1.
 Rotational temperature (Kelvin)      0.51290
 Rotational constant (GHZ):          10.687073
    2 imaginary frequencies ignored.
 Zero-point vibrational energy       1600.8 (Joules/Mol)
                                    0.38260 (Kcal/Mol)
 Warning -- explicit consideration of   2 degrees of freedom as
           vibrations may cause significant error
 Vibrational temperatures:    192.53   192.53
          (Kelvin)

 Zero-point correction=                           0.000610 (Hartree/Particle)
 Thermal correction to Energy=                    0.004314
 Thermal correction to Enthalpy=                  0.005258
 Thermal correction to Gibbs Free Energy=        -0.021759
 Sum of electronic and zero-point Energies=           -100.760468
 Sum of electronic and thermal Energies=              -100.756764
 Sum of electronic and thermal Enthalpies=            -100.755820
 Sum of electronic and thermal Free Energies=         -100.782837

                     E (Thermal)             CV                S
                      KCal/Mol        Cal/Mol-Kelvin    Cal/Mol-Kelvin
 Total                    2.707              8.807             56.863
 Electronic               0.000              0.000              1.377
 Translational            0.889              2.981             35.068
 Rotational               0.592              1.987             14.636
 Vibrational              1.226              3.839              5.781
 Vibration     1          0.613              1.920              2.890
 Vibration     2          0.613              1.920              2.890

 Normal termination of Gaussian 16 at Fri Aug 22 19:33:09 2025.
