 Gaussian 16, Revision C.01,
 Gaussian 16:  ES64L-G16RevC.01  3-Jul-2019

 -----------------------------------------
 # sp b3lyp/6-311g** Force nosymm scf=(qc)
 -----------------------------------------

 -------------------
 Title Card Required
 -------------------
 Symbolic Z-matrix:
 Charge =  0 Multiplicity = 2

                          Input orientation:
 ---------------------------------------------------------------------
 Center     Atomic      Atomic             Coordinates (Angstroms)
 Number     Number       Type             X           Y           Z
 ---------------------------------------------------------------------
      1          1           0        0.000000    0.000000    0.000000
      2          1           0       -3.550000    0.000000    0.000000
      3          9           0        0.950000    0.000000    0.000000
 ---------------------------------------------------------------------

 SCF Done:  E(UB3LYP) =  -100.971016174     a.u. after    6 cycles

 Alpha  occ. eigenvalues --  -24.64106  -1.17443  -0.52741  -0.39214  -0.39214
 Alpha  occ. eigenvalues --   -0.33617
 Alpha virt. eigenvalues --    0.01929   0.24098   0.36918   0.94220   0.94220
 Alpha virt. eigenvalues --    0.98132   1.23757   1.23896   1.23896   1.29503
 Alpha virt. eigenvalues --    1.36475   1.36475   1.95830   2.14264   2.34857

  Beta  occ. eigenvalues --  -24.64105  -1.17440  -0.52738  -0.39213  -0.39213
  Beta virt. eigenvalues --   -0.05616   0.02470   0.35734   0.39814   0.94220
  Beta virt. eigenvalues --    0.94220   0.98132   1.29297   1.36474   1.36474
  Beta virt. eigenvalues --    1.50201   1.50628   1.50628   1.95883   2.34730

 Mulliken charges and spin densities:
               1          2
     1  H    0.307830   0.000531
     2  H    0.000846   0.999003
     3  F   -0.308676   0.000466
 Sum of Mulliken charges =   0.00000   1.00000

 Dipole moment (field-independent basis, Debye):
    X=             -1.9653    Y=              0.0000    Z=             -0.0000  Tot=              1.9653
 Quadrupole moment (field-independent basis, Debye-Ang):
   XX=             -8.0712   YY=             -6.9163   ZZ=             -6.9163
   XY=             -0.0000   XZ=              0.0000   YZ=             -0.0000

  Exact polarizability:       6.073      -0.000       2.413      -0.000      -0.000       2.413
 Approx polarizability:       7.261      -0.000       2.388       0.000      -0.000       2.388

 ******    1 imaginary frequencies (negative Signs) ******

                      1                      2                      3
                      A                      A                      A
 Frequencies --    -42.7969               676.6228               676.6228
 Red. masses --      1.0532                 1.0379                 1.0379
 Frc consts  --      0.0011                 0.2800                 0.2800
 IR Inten    --      0.0398               175.2661               175.2661

                      4
                      A
 Frequencies --   3679.6918
 Red. masses --      1.0583
 Frc consts  --      8.4429
 IR Inten    --     94.5653

 - Thermochemistry -
 -------------------
 Temperature   298.150 Kelvin.  Pressure   1.00000 Atm.
 Atom     1 has atomic number  1 and mass   1.00783

 Molecular mass:    21.01405 amu.
 Principal axes and moments of inertia in atomic units:
                           1         2         3
     Eigenvalues --     0.00000  71.00117  71.00117
           X            1.00000  -0.00000   0.00000
           Y            0.00000   1.00000   0.00000
           Z            0.00000   0.00000   1.00000
 This molecule is a prolate symmetric top.
 Rotational symmetry number  1.
 Rotational temperature (Kelvin)      1.21989
 Rotational constant (GHZ):          25.418471
    1 imaginary frequencies ignored.
 Zero-point vibrational energy      30103.7 (Joules/Mol)
                                    7.19495 (Kcal/Mol)
 Vibrational temperatures:    973.51   973.51  5294.26
          (Kelvin)

 Zero-point correction=                           0.011466 (Hartree/Particle)
 Thermal correction to Energy=                    0.014071
 Thermal correction to Enthalpy=                  0.015015
 Thermal correction to Gibbs Free Energy=        -0.008756
 Sum of electronic and zero-point Energies=           -100.959550
 Sum of electronic and thermal Energies=              -100.956945
 Sum of electronic and thermal Enthalpies=            -100.956001
 Sum of electronic and thermal Free Energies=         -100.979772

                     E (Thermal)             CV                S
                      KCal/Mol        Cal/Mol-Kelvin    Cal/Mol-Kelvin
 Total                    8.830              6.717             50.030
 Electronic               0.000              0.000              1.377
 Translational            0.889              2.981             35.068
 Rotational               0.592              1.987             12.915
 Vibrational              7.349              1.749              0.670

 Normal termination of Gaussian 16 at Fri Aug 22 15:59:10 2025.
