 Gaussian 16, Revision C.01,
 Gaussian 16:  ES64L-G16RevC.01  3-Jul-2019

 -----------------------------------------
 # sp b3lyp/6-311g** Force nosymm scf=(qc)
 -----------------------------------------

 -------------------
 Title Card Required
 -------------------
 Symbolic Z-matrix:
 Charge =  0 Multiplicity = 2

                          Input orientation:
 ---------------------------------------------------------------------
 Center     Atomic      Atomic             Coordinates (Angstroms)
 Number     Number       Type             X           Y           Z
 ---------------------------------------------------------------------
      1          1           0        0.000000    0.000000    0.000000
      2          1           0       -2.350000    0.000000    0.000000
      3          9           0        0.950000    0.000000    0.000000
 ---------------------------------------------------------------------

 SCF Done:  E(UB3LYP) =  -100.971484461     a.u. after    6 cycles

 Alpha  occ. eigenvalues --  -24.63941  -1.17309  -0.52699  -0.39071  -0.39071
 Alpha  occ. eigenvalues --   -0.35209
 Alpha virt. eigenvalues --    0.03661   0.25044   0.36652   0.94354   0.94354
 Alpha virt. eigenvalues --    0.97981   1.17858   1.22335   1.22335   1.36628
 Alpha virt. eigenvalues --    1.36628   1.41896   1.95974   2.13635   2.35378

  Beta  occ. eigenvalues --  -24.63913  -1.17238  -0.52569  -0.39046  -0.39046
  Beta virt. eigenvalues --   -0.10393   0.05506   0.35752   0.37541   0.94357
  Beta virt. eigenvalues --    0.94357   0.98168   1.27382   1.36557   1.36557
  Beta virt. eigenvalues --    1.43399   1.43399   1.53193   1.96027   2.34446

 Mulliken charges and spin densities:
               1          2
     1  H    0.301124   0.004077
     2  H    0.008496   0.987662
     3  F   -0.309621   0.008261
 Sum of Mulliken charges =   0.00000   1.00000

 Dipole moment (field-independent basis, Debye):
    X=             -2.0612    Y=             -0.0000    Z=              0.0000  Tot=              2.0612
 Quadrupole moment (field-independent basis, Debye-Ang):
   XX=             -7.7853   YY=             -6.9033   ZZ=             -6.9033
   XY=             -0.0000   XZ=              0.0000   YZ=             -0.0000

  Exact polarizability:       8.576       0.000       2.449      -0.000       0.000       2.449
 Approx polarizability:       9.427       0.000       2.430       0.000       0.000       2.430

                      1                      2                      3
                      A                      A                      A
 Frequencies --     15.5238               653.6925               653.6925
 Red. masses --      1.0529                 1.0315                 1.0315
 Frc consts  --      0.0001                 0.2597                 0.2597
 IR Inten    --      1.1473               156.0670               156.0670

                      4
                      A
 Frequencies --   3665.0605
 Red. masses --      1.0586
 Frc consts  --      8.3782
 IR Inten    --    139.3586

 - Thermochemistry -
 -------------------
 Temperature   298.150 Kelvin.  Pressure   1.00000 Atm.
 Atom     1 has atomic number  1 and mass   1.00783

 Molecular mass:    21.01405 amu.
 Principal axes and moments of inertia in atomic units:
                           1         2         3
     Eigenvalues --     0.00000  39.32360  39.32360
           X            1.00000  -0.00000   0.00000
           Y            0.00000   1.00000   0.00000
           Z            0.00000   0.00000   1.00000
 This molecule is a prolate symmetric top.
 Rotational symmetry number  1.
 Rotational temperature (Kelvin)      2.20259
 Rotational constant (GHZ):          45.894613
 Zero-point vibrational energy      29834.7 (Joules/Mol)
                                    7.13066 (Kcal/Mol)
 Warning -- explicit consideration of   1 degrees of freedom as
           vibrations may cause significant error
 Vibrational temperatures:     22.34   940.52   940.52  5273.20
          (Kelvin)

 Zero-point correction=                           0.011363 (Hartree/Particle)
 Thermal correction to Energy=                    0.014899
 Thermal correction to Enthalpy=                  0.015843
 Thermal correction to Gibbs Free Energy=        -0.010791
 Sum of electronic and zero-point Energies=           -100.960121
 Sum of electronic and thermal Energies=              -100.956586
 Sum of electronic and thermal Enthalpies=            -100.955642
 Sum of electronic and thermal Free Energies=         -100.982275

                     E (Thermal)             CV                S
                      KCal/Mol        Cal/Mol-Kelvin    Cal/Mol-Kelvin
 Total                    9.349              8.795             56.055
 Electronic               0.000              0.000              1.377
 Translational            0.889              2.981             35.068
 Rotational               0.592              1.987             11.740
 Vibrational              7.868              3.827              7.869
 Vibration     1          0.593              1.986              7.137

 Normal termination of Gaussian 16 at Fri Aug 22 15:58:23 2025.
