 Gaussian 16, Revision C.01,
 Gaussian 16:  ES64L-G16RevC.01  3-Jul-2019

 -----------------------------------------
 # sp b3lyp/6-311g** Force nosymm scf=(qc)
 -----------------------------------------

 -------------------
 Title Card Required
 -------------------
 Symbolic Z-matrix:
 Charge =  0 Multiplicity = 2

                          Input orientation:
 ---------------------------------------------------------------------
 Center     Atomic      Atomic             Coordinates (Angstroms)
 Number     Number       Type             X           Y           Z
 ---------------------------------------------------------------------
      1          1           0        0.000000    0.000000    0.000000
      2          1           0       -0.550000    0.000000    0.000000
      3          9           0        1.650000    0.000000    0.000000
 ---------------------------------------------------------------------

 SCF Done:  E(UB3LYP) =  -100.892214118     a.u. after    6 cycles

 Alpha  occ. eigenvalues --  -24.73652  -1.20204  -0.57508  -0.46696  -0.44596
 Alpha  occ. eigenvalues --   -0.44596
 Alpha virt. eigenvalues --    0.11735   0.19769   0.51315   0.89087   0.89087
 Alpha virt. eigenvalues --    0.96208   1.11069   1.11069   1.27843   1.68631
 Alpha virt. eigenvalues --    1.82735   1.95557   1.95557   2.49738   3.69929

  Beta  occ. eigenvalues --  -24.70697  -1.11933  -0.50802  -0.41686  -0.41686
  Beta virt. eigenvalues --   -0.24275   0.12378   0.20438   0.52868   0.90344
  Beta virt. eigenvalues --    0.90344   1.03216   1.12301   1.12301   1.31508
  Beta virt. eigenvalues --    1.70612   1.83517   1.96113   1.96113   2.51315

 Mulliken charges and spin densities:
               1          2
     1  H    0.064051  -0.025989
     2  H    0.008926   0.117872
     3  F   -0.072977   0.908117
 Sum of Mulliken charges =   0.00000   1.00000

 Dipole moment (field-independent basis, Debye):
    X=             -0.5890    Y=             -0.0000    Z=              0.0000  Tot=              0.5890
 Quadrupole moment (field-independent basis, Debye-Ang):
   XX=             -6.2649   YY=             -6.5851   ZZ=             -6.5851
   XY=             -0.0000   XZ=              0.0000   YZ=             -0.0000

  Exact polarizability:      13.480      -0.000       2.137      -0.000      -0.000       2.137
 Approx polarizability:      15.020      -0.000       2.202      -0.000       0.000       2.202

 ******    2 imaginary frequencies (negative Signs) ******

                      1                      2                      3
                      A                      A                      A
 Frequencies --  -3772.6853             -3772.6853               427.6262
 Red. masses --      1.0098                 1.0098                 1.1085
 Frc consts  --      8.4685                 8.4685                 0.1194
 IR Inten    --      0.1106                 0.1106                40.3441

                      4
                      A
 Frequencies --   8258.7378
 Red. masses --      1.0078
 Frc consts  --     40.5009
 IR Inten    --    328.5656

 - Thermochemistry -
 -------------------
 Temperature   298.150 Kelvin.  Pressure   1.00000 Atm.
 Atom     1 has atomic number  1 and mass   1.00783

 Molecular mass:    21.01405 amu.
 Principal axes and moments of inertia in atomic units:
                           1         2         3
     Eigenvalues --     0.00000  24.65904  24.65904
           X            1.00000  -0.00000   0.00000
           Y            0.00000   1.00000   0.00000
           Z            0.00000   0.00000   1.00000
 This molecule is a prolate symmetric top.
 Rotational symmetry number  1.
 Rotational temperature (Kelvin)      3.51246
 Rotational constant (GHZ):          73.187824
    2 imaginary frequencies ignored.
 Zero-point vibrational energy      51956.0 (Joules/Mol)
                                   12.41778 (Kcal/Mol)
 Warning -- explicit consideration of   1 degrees of freedom as
           vibrations may cause significant error
 Vibrational temperatures:    615.26 11882.48
          (Kelvin)

 Zero-point correction=                           0.019789 (Hartree/Particle)
 Thermal correction to Energy=                    0.022433
 Thermal correction to Enthalpy=                  0.023377
 Thermal correction to Gibbs Free Energy=         0.000511
 Sum of electronic and zero-point Energies=           -100.872425
 Sum of electronic and thermal Energies=              -100.869781
 Sum of electronic and thermal Enthalpies=            -100.868837
 Sum of electronic and thermal Free Energies=         -100.891703

                     E (Thermal)             CV                S
                      KCal/Mol        Cal/Mol-Kelvin    Cal/Mol-Kelvin
 Total                   14.077              6.378             48.125
 Electronic               0.000              0.000              1.377
 Translational            0.889              2.981             35.068
 Rotational               0.592              1.987             10.813
 Vibrational             12.596              1.410              0.866
 Vibration     1          0.789              1.410              0.866

 Normal termination of Gaussian 16 at Fri Aug 22 16:33:01 2025.
