 Gaussian 16, Revision C.01,
 Gaussian 16:  ES64L-G16RevC.01  3-Jul-2019

 -----------------------------------------
 # sp b3lyp/6-311g** Force nosymm scf=(qc)
 -----------------------------------------

 -------------------
 Title Card Required
 -------------------
 Symbolic Z-matrix:
 Charge =  0 Multiplicity = 2

                          Input orientation:
 ---------------------------------------------------------------------
 Center     Atomic      Atomic             Coordinates (Angstroms)
 Number     Number       Type             X           Y           Z
 ---------------------------------------------------------------------
      1          1           0        0.000000    0.000000    0.000000
      2          1           0       -1.200000    0.000000    0.000000
      3          9           0        0.650000    0.000000    0.000000
 ---------------------------------------------------------------------

 SCF Done:  E(UB3LYP) =  -100.779845349     a.u. after    7 cycles

 Alpha  occ. eigenvalues --  -24.63729  -1.32753  -0.62313  -0.43174  -0.43174
 Alpha  occ. eigenvalues --   -0.35296
 Alpha virt. eigenvalues --    0.15443   0.20457   0.64766   0.90785   0.90785
 Alpha virt. eigenvalues --    0.92513   1.11957   1.11957   1.46741   1.60545
 Alpha virt. eigenvalues --    1.60545   1.73409   1.96282   2.32231   3.67792

  Beta  occ. eigenvalues --  -24.63482  -1.31999  -0.60893  -0.42981  -0.42981
  Beta virt. eigenvalues --   -0.12784   0.16363   0.27562   0.70246   0.91506
  Beta virt. eigenvalues --    0.91506   0.93060   1.21982   1.21982   1.47836
  Beta virt. eigenvalues --    1.66099   1.66099   1.83978   1.99040   2.51814

 Mulliken charges and spin densities:
               1          2
     1  H    0.248164   0.008424
     2  H   -0.001563   0.959049
     3  F   -0.246601   0.032527
 Sum of Mulliken charges =   0.00000   1.00000

 Dipole moment (field-independent basis, Debye):
    X=             -1.3728    Y=              0.0000    Z=             -0.0000  Tot=              1.3728
 Quadrupole moment (field-independent basis, Debye-Ang):
   XX=             -7.1562   YY=             -6.4817   ZZ=             -6.4817
   XY=              0.0000   XZ=             -0.0000   YZ=             -0.0000

  Exact polarizability:       7.164      -0.000       2.547       0.000       0.000       2.547
 Approx polarizability:       6.929       0.000       2.583      -0.000       0.000       2.583

 ******    2 imaginary frequencies (negative Signs) ******

                      1                      2                      3
                      A                      A                      A
 Frequencies --  -4481.8849             -4481.8849              1461.3933
 Red. masses --      1.0268                 1.0268                 1.0540
 Frc consts  --     12.1519                12.1519                 1.3263
 IR Inten    --    144.8680               144.8680                32.1015

                      4
                      A
 Frequencies --  10850.0382
 Red. masses --      1.0575
 Frc consts  --     73.3522
 IR Inten    --     97.8106

 - Thermochemistry -
 -------------------
 Temperature   298.150 Kelvin.  Pressure   1.00000 Atm.
 Atom     1 has atomic number  1 and mass   1.00783

 Molecular mass:    21.01405 amu.
 Principal axes and moments of inertia in atomic units:
                           1         2         3
     Eigenvalues --     0.00000  12.75939  12.75939
           X            1.00000  -0.00000   0.00000
           Y            0.00000   1.00000   0.00000
           Z            0.00000   0.00000   1.00000
 This molecule is a prolate symmetric top.
 Rotational symmetry number  1.
 Rotational temperature (Kelvin)      6.78825
 Rotational constant (GHZ):         141.444109
    2 imaginary frequencies ignored.
 Zero-point vibrational energy      73638.7 (Joules/Mol)
                                   17.60007 (Kcal/Mol)
 Vibrational temperatures:   2102.62 15610.79
          (Kelvin)

 Zero-point correction=                           0.028048 (Hartree/Particle)
 Thermal correction to Energy=                    0.030414
 Thermal correction to Enthalpy=                  0.031358
 Thermal correction to Gibbs Free Energy=         0.009519
 Sum of electronic and zero-point Energies=           -100.751798
 Sum of electronic and thermal Energies=              -100.749432
 Sum of electronic and thermal Enthalpies=            -100.748487
 Sum of electronic and thermal Free Energies=         -100.770326

                     E (Thermal)             CV                S
                      KCal/Mol        Cal/Mol-Kelvin    Cal/Mol-Kelvin
 Total                   19.085              5.054             45.963
 Electronic               0.000              0.000              1.377
 Translational            0.889              2.981             35.068
 Rotational               0.592              1.987              9.504
 Vibrational             17.604              0.086              0.014

 Normal termination of Gaussian 16 at Fri Aug 22 15:43:31 2025.
