 Gaussian 16, Revision C.01,
 Gaussian 16:  ES64L-G16RevC.01  3-Jul-2019

 -----------------------------------------
 # sp b3lyp/6-311g** Force nosymm scf=(qc)
 -----------------------------------------

 -------------------
 Title Card Required
 -------------------
 Symbolic Z-matrix:
 Charge =  0 Multiplicity = 2

                          Input orientation:
 ---------------------------------------------------------------------
 Center     Atomic      Atomic             Coordinates (Angstroms)
 Number     Number       Type             X           Y           Z
 ---------------------------------------------------------------------
      1          1           0        0.000000    0.000000    0.000000
      2          1           0       -2.100000    0.000000    0.000000
      3          9           0        1.100000    0.000000    0.000000
 ---------------------------------------------------------------------

 SCF Done:  E(UB3LYP) =  -100.949702010     a.u. after    6 cycles

 Alpha  occ. eigenvalues --  -24.63881  -1.13573  -0.49610  -0.37763  -0.37763
 Alpha  occ. eigenvalues --   -0.36114
 Alpha virt. eigenvalues --   -0.00038   0.24297   0.30777   0.93887   0.93887
 Alpha virt. eigenvalues --    0.99603   1.15188   1.21298   1.21298   1.35670
 Alpha virt. eigenvalues --    1.35670   1.45047   1.78433   2.13792   2.33574

  Beta  occ. eigenvalues --  -24.63795  -1.13356  -0.49158  -0.37685  -0.37685
  Beta virt. eigenvalues --   -0.12863   0.02589   0.30653   0.34956   0.93892
  Beta virt. eigenvalues --    0.93892   0.99944   1.24252   1.35193   1.35193
  Beta virt. eigenvalues --    1.41391   1.41391   1.54688   1.79082   2.30852

 Mulliken charges and spin densities:
               1          2
     1  H    0.326545   0.000863
     2  H    0.018065   0.974036
     3  F   -0.344610   0.025101
 Sum of Mulliken charges =  -0.00000   1.00000

 Dipole moment (field-independent basis, Debye):
    X=             -2.3678    Y=              0.0000    Z=             -0.0000  Tot=              2.3678
 Quadrupole moment (field-independent basis, Debye-Ang):
   XX=             -8.0665   YY=             -7.0187   ZZ=             -7.0187
   XY=             -0.0000   XZ=             -0.0000   YZ=              0.0000

  Exact polarizability:      12.417       0.000       2.415      -0.000      -0.000       2.415
 Approx polarizability:      14.485      -0.000       2.386       0.000      -0.000       2.386

 ******    1 imaginary frequencies (negative Signs) ******

                      1                      2                      3
                      A                      A                      A
 Frequencies --   -185.9233              1143.6542              1143.6542
 Red. masses --      1.0492                 1.0273                 1.0273
 Frc consts  --      0.0214                 0.7917                 0.7917
 IR Inten    --      6.5173               126.8486               126.8486

                      4
                      A
 Frequencies --   1858.6828
 Red. masses --      1.0624
 Frc consts  --      2.1626
 IR Inten    --    178.3275

 - Thermochemistry -
 -------------------
 Temperature   298.150 Kelvin.  Pressure   1.00000 Atm.
 Atom     1 has atomic number  1 and mass   1.00783

 Molecular mass:    21.01405 amu.
 Principal axes and moments of inertia in atomic units:
                           1         2         3
     Eigenvalues --     0.00000  38.01715  38.01715
           X            1.00000  -0.00000   0.00000
           Y            0.00000   1.00000   0.00000
           Z            0.00000   0.00000   1.00000
 This molecule is a prolate symmetric top.
 Rotational symmetry number  1.
 Rotational temperature (Kelvin)      2.27829
 Rotational constant (GHZ):          47.471770
    1 imaginary frequencies ignored.
 Zero-point vibrational energy      24798.5 (Joules/Mol)
                                    5.92699 (Kcal/Mol)
 Vibrational temperatures:   1645.46  1645.46  2674.23
          (Kelvin)

 Zero-point correction=                           0.009445 (Hartree/Particle)
 Thermal correction to Energy=                    0.011849
 Thermal correction to Enthalpy=                  0.012793
 Thermal correction to Gibbs Free Energy=        -0.010121
 Sum of electronic and zero-point Energies=           -100.940257
 Sum of electronic and thermal Energies=              -100.937853
 Sum of electronic and thermal Enthalpies=            -100.936909
 Sum of electronic and thermal Free Energies=         -100.959823

                     E (Thermal)             CV                S
                      KCal/Mol        Cal/Mol-Kelvin    Cal/Mol-Kelvin
 Total                    7.435              5.478             48.225
 Electronic               0.000              0.000              1.377
 Translational            0.889              2.981             35.068
 Rotational               0.592              1.987             11.673
 Vibrational              5.954              0.510              0.107

 Normal termination of Gaussian 16 at Fri Aug 22 16:05:24 2025.
