 Gaussian 16, Revision C.01,
 Gaussian 16:  ES64L-G16RevC.01  3-Jul-2019

 -----------------------------------------
 # sp b3lyp/6-311g** Force nosymm scf=(qc)
 -----------------------------------------

 -------------------
 Title Card Required
 -------------------
 Symbolic Z-matrix:
 Charge =  0 Multiplicity = 2

                          Input orientation:
 ---------------------------------------------------------------------
 Center     Atomic      Atomic             Coordinates (Angstroms)
 Number     Number       Type             X           Y           Z
 ---------------------------------------------------------------------
      1          1           0        0.000000    0.000000    0.000000
      2          1           0       -0.550000    0.000000    0.000000
      3          9           0        1.800000    0.000000    0.000000
 ---------------------------------------------------------------------

 SCF Done:  E(UB3LYP) =  -100.893233829     a.u. after    6 cycles

 Alpha  occ. eigenvalues --  -24.74576  -1.20836  -0.56488  -0.47731  -0.45238
 Alpha  occ. eigenvalues --   -0.45238
 Alpha virt. eigenvalues --    0.11413   0.19833   0.50743   0.89770   0.89770
 Alpha virt. eigenvalues --    0.95081   1.10580   1.10580   1.22211   1.68038
 Alpha virt. eigenvalues --    1.81809   1.95510   1.95510   2.48025   3.68722

  Beta  occ. eigenvalues --  -24.71546  -1.12259  -0.50002  -0.42231  -0.42231
  Beta virt. eigenvalues --   -0.25029   0.11990   0.20474   0.51837   0.91089
  Beta virt. eigenvalues --    0.91089   1.02447   1.11404   1.11404   1.25873
  Beta virt. eigenvalues --    1.69511   1.82465   1.95837   1.95837   2.49033

 Mulliken charges and spin densities:
               1          2
     1  H    0.025569  -0.023634
     2  H    0.018462   0.081350
     3  F   -0.044031   0.942284
 Sum of Mulliken charges =   0.00000   1.00000

 Dipole moment (field-independent basis, Debye):
    X=             -0.4126    Y=             -0.0000    Z=             -0.0000  Tot=              0.4126
 Quadrupole moment (field-independent basis, Debye-Ang):
   XX=             -6.0207   YY=             -6.6135   ZZ=             -6.6135
   XY=             -0.0000   XZ=             -0.0000   YZ=             -0.0000

  Exact polarizability:      12.516       0.000       2.066      -0.000       0.000       2.066
 Approx polarizability:      13.439      -0.000       2.137      -0.000       0.000       2.137

 ******    2 imaginary frequencies (negative Signs) ******

                      1                      2                      3
                      A                      A                      A
 Frequencies --  -3745.0509             -3745.0509               320.3664
 Red. masses --      1.0096                 1.0096                 1.1085
 Frc consts  --      8.3426                 8.3426                 0.0670
 IR Inten    --      0.3912                 0.3912                25.8933

                      4
                      A
 Frequencies --   8290.5112
 Red. masses --      1.0078
 Frc consts  --     40.8130
 IR Inten    --    213.6682

 - Thermochemistry -
 -------------------
 Temperature   298.150 Kelvin.  Pressure   1.00000 Atm.
 Atom     1 has atomic number  1 and mass   1.00783

 Molecular mass:    21.01405 amu.
 Principal axes and moments of inertia in atomic units:
                           1         2         3
     Eigenvalues --     0.00000  28.56359  28.56359
           X            1.00000  -0.00000   0.00000
           Y            0.00000   1.00000   0.00000
           Z            0.00000   0.00000   1.00000
 This molecule is a prolate symmetric top.
 Rotational symmetry number  1.
 Rotational temperature (Kelvin)      3.03232
 Rotational constant (GHZ):          63.183277
    2 imaginary frequencies ignored.
 Zero-point vibrational energy      51504.5 (Joules/Mol)
                                   12.30987 (Kcal/Mol)
 Warning -- explicit consideration of   1 degrees of freedom as
           vibrations may cause significant error
 Vibrational temperatures:    460.94 11928.20
          (Kelvin)

 Zero-point correction=                           0.019617 (Hartree/Particle)
 Thermal correction to Energy=                    0.022373
 Thermal correction to Enthalpy=                  0.023317
 Thermal correction to Gibbs Free Energy=         0.000103
 Sum of electronic and zero-point Energies=           -100.873617
 Sum of electronic and thermal Energies=              -100.870861
 Sum of electronic and thermal Enthalpies=            -100.869917
 Sum of electronic and thermal Free Energies=         -100.893131

                     E (Thermal)             CV                S
                      KCal/Mol        Cal/Mol-Kelvin    Cal/Mol-Kelvin
 Total                   14.039              6.603             48.859
 Electronic               0.000              0.000              1.377
 Translational            0.889              2.981             35.068
 Rotational               0.592              1.987             11.105
 Vibrational             12.558              1.635              1.308
 Vibration     1          0.706              1.635              1.308

 Normal termination of Gaussian 16 at Fri Aug 22 16:42:14 2025.
