 Gaussian 16, Revision C.01,
 Gaussian 16:  ES64L-G16RevC.01  3-Jul-2019

 -----------------------------------------
 # sp b3lyp/6-311g** Force nosymm scf=(qc)
 -----------------------------------------

 -------------------
 Title Card Required
 -------------------
 Symbolic Z-matrix:
 Charge =  0 Multiplicity = 2

                          Input orientation:
 ---------------------------------------------------------------------
 Center     Atomic      Atomic             Coordinates (Angstroms)
 Number     Number       Type             X           Y           Z
 ---------------------------------------------------------------------
      1          1           0        0.000000    0.000000    0.000000
      2          1           0       -3.250000    0.000000    0.000000
      3          9           0        2.700000    0.000000    0.000000
 ---------------------------------------------------------------------

 SCF Done:  E(UB3LYP) =  -100.764333412     a.u. after   20 cycles

 Alpha  occ. eigenvalues --  -24.72819  -1.18967  -0.51932  -0.43614  -0.43614
 Alpha  occ. eigenvalues --   -0.32839
 Alpha virt. eigenvalues --   -0.09606   0.23996   0.35349   0.90022   0.93020
 Alpha virt. eigenvalues --    0.93020   1.05654   1.24681   1.24681   1.25095
 Alpha virt. eigenvalues --    1.41997   1.41997   1.43301   2.14963   2.37448

  Beta  occ. eigenvalues --  -24.69885  -1.10589  -0.40684  -0.40684  -0.34616
  Beta virt. eigenvalues --   -0.24027  -0.07157   0.24313   0.37414   0.94443
  Beta virt. eigenvalues --    0.94443   0.97882   1.08800   1.22730   1.22730
  Beta virt. eigenvalues --    1.25660   1.45196   1.45426   1.45426   2.14392

 Mulliken charges and spin densities:
               1          2
     1  H    0.063265  -0.924372
     2  H    0.001313   0.996135
     3  F   -0.064578   0.928237
 Sum of Mulliken charges =  -0.00000   1.00000

 Dipole moment (field-independent basis, Debye):
    X=             -0.9126    Y=             -0.0000    Z=             -0.0000  Tot=              0.9126
 Quadrupole moment (field-independent basis, Debye-Ang):
   XX=             -8.8653   YY=             -7.5956   ZZ=             -7.5956
   XY=              0.0000   XZ=              0.0000   YZ=             -0.0000

  Exact polarizability:      33.319       0.000       2.022       0.000      -0.000       2.022
 Approx polarizability:      38.264       0.000       1.921       0.000       0.000       1.921

 ******    2 imaginary frequencies (negative Signs) ******

                      1                      2                      3
                      A                      A                      A
 Frequencies --   -520.7316              -158.6837               195.1983
 Red. masses --      1.0469                 1.0648                 1.0203
 Frc consts  --      0.1673                 0.0158                 0.0229
 IR Inten    --     61.8243                 1.2723                 3.7306

                      4
                      A
 Frequencies --    195.1983
 Red. masses --      1.0203
 Frc consts  --      0.0229
 IR Inten    --      3.7306

 - Thermochemistry -
 -------------------
 Temperature   298.150 Kelvin.  Pressure   1.00000 Atm.
 Atom     1 has atomic number  1 and mass   1.00783

 Molecular mass:    21.01405 amu.
 Principal axes and moments of inertia in atomic units:
                           1         2         3
     Eigenvalues --     0.00000 140.73579 140.73579
           X            1.00000  -0.00000   0.00000
           Y            0.00000   1.00000   0.00000
           Z            0.00000   0.00000   1.00000
 This molecule is a prolate symmetric top.
 Rotational symmetry number  1.
 Rotational temperature (Kelvin)      0.61544
 Rotational constant (GHZ):          12.823612
    2 imaginary frequencies ignored.
 Zero-point vibrational energy       2335.1 (Joules/Mol)
                                    0.55810 (Kcal/Mol)
 Warning -- explicit consideration of   2 degrees of freedom as
           vibrations may cause significant error
 Vibrational temperatures:    280.85   280.85
          (Kelvin)

 Zero-point correction=                           0.000889 (Hartree/Particle)
 Thermal correction to Energy=                    0.004386
 Thermal correction to Enthalpy=                  0.005331
 Thermal correction to Gibbs Free Energy=        -0.020837
 Sum of electronic and zero-point Energies=           -100.763444
 Sum of electronic and thermal Energies=              -100.759947
 Sum of electronic and thermal Enthalpies=            -100.759003
 Sum of electronic and thermal Free Energies=         -100.785171

                     E (Thermal)             CV                S
                      KCal/Mol        Cal/Mol-Kelvin    Cal/Mol-Kelvin
 Total                    2.753              8.661             55.075
 Electronic               0.000              0.000              1.377
 Translational            0.889              2.981             35.068
 Rotational               0.592              1.987             14.274
 Vibrational              1.271              3.693              4.356
 Vibration     1          0.636              1.847              2.178
 Vibration     2          0.636              1.847              2.178

 Normal termination of Gaussian 16 at Fri Aug 22 18:26:40 2025.
