 Gaussian 16, Revision C.01,
 Gaussian 16:  ES64L-G16RevC.01  3-Jul-2019

 -----------------------------------------
 # sp b3lyp/6-311g** Force nosymm scf=(qc)
 -----------------------------------------

 -------------------
 Title Card Required
 -------------------
 Symbolic Z-matrix:
 Charge =  0 Multiplicity = 2

                          Input orientation:
 ---------------------------------------------------------------------
 Center     Atomic      Atomic             Coordinates (Angstroms)
 Number     Number       Type             X           Y           Z
 ---------------------------------------------------------------------
      1          1           0        0.000000    0.000000    0.000000
      2          1           0       -3.300000    0.000000    0.000000
      3          9           0        3.100000    0.000000    0.000000
 ---------------------------------------------------------------------

 SCF Done:  E(UB3LYP) =  -100.760701406     a.u. after   22 cycles

 Alpha  occ. eigenvalues --  -24.74428  -1.20463  -0.53548  -0.44962  -0.44962
 Alpha  occ. eigenvalues --   -0.32541
 Alpha virt. eigenvalues --   -0.08158   0.24301   0.35968   0.89056   0.92069
 Alpha virt. eigenvalues --    0.92069   1.03369   1.24974   1.24974   1.25291
 Alpha virt. eigenvalues --    1.43803   1.43803   1.44028   2.15149   2.40064

  Beta  occ. eigenvalues --  -24.71378  -1.11714  -0.41907  -0.41907  -0.33511
  Beta virt. eigenvalues --   -0.24969  -0.06915   0.24192   0.37537   0.93538
  Beta virt. eigenvalues --    0.93538   0.97876   1.07190   1.23851   1.23851
  Beta virt. eigenvalues --    1.24263   1.45394   1.45638   1.45638   2.15501

 Mulliken charges and spin densities:
               1          2
     1  H    0.029503  -0.963480
     2  H    0.000639   0.996581
     3  F   -0.030142   0.966899
 Sum of Mulliken charges =  -0.00000   1.00000

 Dipole moment (field-independent basis, Debye):
    X=             -0.4902    Y=              0.0000    Z=              0.0000  Tot=              0.4902
 Quadrupole moment (field-independent basis, Debye-Ang):
   XX=             -8.0726   YY=             -7.6171   ZZ=             -7.6171
   XY=             -0.0000   XZ=             -0.0000   YZ=             -0.0000

  Exact polarizability:      31.966      -0.000       2.026      -0.000      -0.000       2.026
 Approx polarizability:      30.511      -0.000       1.927      -0.000       0.000       1.927

 ******    2 imaginary frequencies (negative Signs) ******

                      1                      2                      3
                      A                      A                      A
 Frequencies --   -361.6659              -140.5923               128.2151
 Red. masses --      1.0359                 1.0764                 1.0187
 Frc consts  --      0.0798                 0.0125                 0.0099
 IR Inten    --     31.2777                 1.9604                 0.7946

                      4
                      A
 Frequencies --    128.2151
 Red. masses --      1.0187
 Frc consts  --      0.0099
 IR Inten    --      0.7946

 - Thermochemistry -
 -------------------
 Temperature   298.150 Kelvin.  Pressure   1.00000 Atm.
 Atom     1 has atomic number  1 and mass   1.00783

 Molecular mass:    21.01405 amu.
 Principal axes and moments of inertia in atomic units:
                           1         2         3
     Eigenvalues --     0.00000 166.42409 166.42409
           X            1.00000  -0.00000   0.00000
           Y            0.00000   1.00000   0.00000
           Z            0.00000   0.00000   1.00000
 This molecule is a prolate symmetric top.
 Rotational symmetry number  1.
 Rotational temperature (Kelvin)      0.52044
 Rotational constant (GHZ):          10.844231
    2 imaginary frequencies ignored.
 Zero-point vibrational energy       1533.8 (Joules/Mol)
                                    0.36659 (Kcal/Mol)
 Warning -- explicit consideration of   2 degrees of freedom as
           vibrations may cause significant error
 Vibrational temperatures:    184.47   184.47
          (Kelvin)

 Zero-point correction=                           0.000584 (Hartree/Particle)
 Thermal correction to Energy=                    0.004309
 Thermal correction to Enthalpy=                  0.005253
 Thermal correction to Gibbs Free Energy=        -0.021829
 Sum of electronic and zero-point Energies=           -100.760117
 Sum of electronic and thermal Energies=              -100.756393
 Sum of electronic and thermal Enthalpies=            -100.755449
 Sum of electronic and thermal Free Energies=         -100.782530

                     E (Thermal)             CV                S
                      KCal/Mol        Cal/Mol-Kelvin    Cal/Mol-Kelvin
 Total                    2.704              8.818             56.998
 Electronic               0.000              0.000              1.377
 Translational            0.889              2.981             35.068
 Rotational               0.592              1.987             14.607
 Vibrational              1.223              3.850              5.945
 Vibration     1          0.611              1.925              2.973
 Vibration     2          0.611              1.925              2.973

 Normal termination of Gaussian 16 at Fri Aug 22 19:56:07 2025.
