 Gaussian 16, Revision C.01,
 Gaussian 16:  ES64L-G16RevC.01  3-Jul-2019

 -----------------------------------------
 # sp b3lyp/6-311g** Force nosymm scf=(qc)
 -----------------------------------------

 -------------------
 Title Card Required
 -------------------
 Symbolic Z-matrix:
 Charge =  0 Multiplicity = 2

                          Input orientation:
 ---------------------------------------------------------------------
 Center     Atomic      Atomic             Coordinates (Angstroms)
 Number     Number       Type             X           Y           Z
 ---------------------------------------------------------------------
      1          1           0        0.000000    0.000000    0.000000
      2          1           0       -3.100000    0.000000    0.000000
      3          9           0        3.950000    0.000000    0.000000
 ---------------------------------------------------------------------

 SCF Done:  E(UB3LYP) =  -100.759263402     a.u. after   36 cycles

 Alpha  occ. eigenvalues --  -24.75862  -1.21791  -0.54987  -0.46168  -0.46168
 Alpha  occ. eigenvalues --   -0.32322
 Alpha virt. eigenvalues --   -0.07445   0.24900   0.36825   0.86621   0.91181
 Alpha virt. eigenvalues --    0.91181   1.01113   1.25204   1.25204   1.25739
 Alpha virt. eigenvalues --    1.44645   1.44773   1.44773   2.15677   2.39933

  Beta  occ. eigenvalues --  -24.72718  -1.12750  -0.43016  -0.43016  -0.32512
  Beta virt. eigenvalues --   -0.25725  -0.07222   0.24744   0.37119   0.92679
  Beta virt. eigenvalues --    0.92679   0.95989   1.05236   1.24998   1.24998
  Beta virt. eigenvalues --    1.25517   1.44979   1.45104   1.45104   2.15695

 Mulliken charges and spin densities:
               1          2
     1  H    0.002588  -0.990963
     2  H    0.000209   0.994093
     3  F   -0.002797   0.996870
 Sum of Mulliken charges =   0.00000   1.00000

 Dipole moment (field-independent basis, Debye):
    X=             -0.0603    Y=             -0.0000    Z=             -0.0000  Tot=              0.0603
 Quadrupole moment (field-independent basis, Debye-Ang):
   XX=             -6.8809   YY=             -7.6329   ZZ=             -7.6329
   XY=             -0.0000   XZ=             -0.0000   YZ=              0.0000

  Exact polarizability:      13.516      -0.000       2.031      -0.000      -0.000       2.031
 Approx polarizability:      10.128      -0.000       1.935      -0.000       0.000       1.935

 ******    2 imaginary frequencies (negative Signs) ******

                      1                      2                      3
                      A                      A                      A
 Frequencies --   -297.7723               -76.1630               104.4854
 Red. masses --      1.0083                 1.1079                 1.0153
 Frc consts  --      0.0527                 0.0038                 0.0065
 IR Inten    --      0.8047                 0.6898                 0.0059

                      4
                      A
 Frequencies --    104.4854
 Red. masses --      1.0153
 Frc consts  --      0.0065
 IR Inten    --      0.0059

 - Thermochemistry -
 -------------------
 Temperature   298.150 Kelvin.  Pressure   1.00000 Atm.
 Atom     1 has atomic number  1 and mass   1.00783

 Molecular mass:    21.01405 amu.
 Principal axes and moments of inertia in atomic units:
                           1         2         3
     Eigenvalues --     0.00000 214.14782 214.14782
           X            1.00000  -0.00000   0.00000
           Y            0.00000   1.00000   0.00000
           Z            0.00000   0.00000   1.00000
 This molecule is a prolate symmetric top.
 Rotational symmetry number  1.
 Rotational temperature (Kelvin)      0.40446
 Rotational constant (GHZ):           8.427549
    2 imaginary frequencies ignored.
 Zero-point vibrational energy       1249.9 (Joules/Mol)
                                    0.29874 (Kcal/Mol)
 Warning -- explicit consideration of   2 degrees of freedom as
           vibrations may cause significant error
 Vibrational temperatures:    150.33   150.33
          (Kelvin)

 Zero-point correction=                           0.000476 (Hartree/Particle)
 Thermal correction to Energy=                    0.004289
 Thermal correction to Enthalpy=                  0.005233
 Thermal correction to Gibbs Free Energy=        -0.022463
 Sum of electronic and zero-point Energies=           -100.758787
 Sum of electronic and thermal Energies=              -100.754975
 Sum of electronic and thermal Enthalpies=            -100.754031
 Sum of electronic and thermal Free Energies=         -100.781727

                     E (Thermal)             CV                S
                      KCal/Mol        Cal/Mol-Kelvin    Cal/Mol-Kelvin
 Total                    2.691              8.859             58.291
 Electronic               0.000              0.000              1.377
 Translational            0.889              2.981             35.068
 Rotational               0.592              1.987             15.108
 Vibrational              1.210              3.891              6.738
 Vibration     1          0.605              1.946              3.369
 Vibration     2          0.605              1.946              3.369

 Normal termination of Gaussian 16 at Sat Aug 23 01:41:03 2025.
