 Gaussian 16, Revision C.01,
 Gaussian 16:  ES64L-G16RevC.01  3-Jul-2019

 -----------------------------------------
 # sp b3lyp/6-311g** Force nosymm scf=(qc)
 -----------------------------------------

 -------------------
 Title Card Required
 -------------------
 Symbolic Z-matrix:
 Charge =  0 Multiplicity = 2

                          Input orientation:
 ---------------------------------------------------------------------
 Center     Atomic      Atomic             Coordinates (Angstroms)
 Number     Number       Type             X           Y           Z
 ---------------------------------------------------------------------
      1          1           0        0.000000    0.000000    0.000000
      2          1           0       -2.800000    0.000000    0.000000
      3          9           0        1.650000    0.000000    0.000000
 ---------------------------------------------------------------------

 SCF Done:  E(UB3LYP) =  -100.824653383     a.u. after   10 cycles

 Alpha  occ. eigenvalues --  -24.63912  -1.08587  -0.41240  -0.35785  -0.35785
 Alpha  occ. eigenvalues --   -0.35091
 Alpha virt. eigenvalues --   -0.17616   0.21213   0.26886   0.94647   0.94647
 Alpha virt. eigenvalues --    0.99269   1.07666   1.22355   1.22355   1.23430
 Alpha virt. eigenvalues --    1.28265   1.28265   1.72299   2.13210   2.16406

  Beta  occ. eigenvalues --  -24.64051  -1.08961  -0.41387  -0.35919  -0.35919
  Beta virt. eigenvalues --   -0.17954  -0.08153   0.24454   0.36460   0.94724
  Beta virt. eigenvalues --    0.94724   0.99377   1.07741   1.29240   1.29240
  Beta virt. eigenvalues --    1.43712   1.43712   1.43751   1.72982   2.17726

 Mulliken charges and spin densities:
               1          2
     1  H    0.323710   0.057732
     2  H    0.013038   0.986279
     3  F   -0.336748  -0.044011
 Sum of Mulliken charges =  -0.00000   1.00000

 Dipole moment (field-independent basis, Debye):
    X=             -2.9030    Y=              0.0000    Z=              0.0000  Tot=              2.9030
 Quadrupole moment (field-independent basis, Debye-Ang):
   XX=            -10.0582   YY=             -7.3995   ZZ=             -7.3995
   XY=              0.0000   XZ=              0.0000   YZ=              0.0000

  Exact polarizability:      24.517       0.000       2.127       0.000       0.000       2.127
 Approx polarizability:      47.226       0.000       2.044       0.000       0.000       2.044

 ******    2 imaginary frequencies (negative Signs) ******

                      1                      2                      3
                      A                      A                      A
 Frequencies --  -1209.9094              -177.1798               889.3417
 Red. masses --      1.0527                 1.0589                 1.0254
 Frc consts  --      0.9079                 0.0196                 0.4779
 IR Inten    --    111.7763                 3.5672                94.0894

                      4
                      A
 Frequencies --    889.3417
 Red. masses --      1.0254
 Frc consts  --      0.4779
 IR Inten    --     94.0894

 - Thermochemistry -
 -------------------
 Temperature   298.150 Kelvin.  Pressure   1.00000 Atm.
 Atom     1 has atomic number  1 and mass   1.00783

 Molecular mass:    21.01405 amu.
 Principal axes and moments of inertia in atomic units:
                           1         2         3
     Eigenvalues --     0.00000  74.64496  74.64496
           X            1.00000  -0.00000   0.00000
           Y            0.00000   1.00000   0.00000
           Z            0.00000   0.00000   1.00000
 This molecule is a prolate symmetric top.
 Rotational symmetry number  1.
 Rotational temperature (Kelvin)      1.16035
 Rotational constant (GHZ):          24.177669
    2 imaginary frequencies ignored.
 Zero-point vibrational energy      10638.9 (Joules/Mol)
                                    2.54276 (Kcal/Mol)
 Vibrational temperatures:   1279.56  1279.56
          (Kelvin)

 Zero-point correction=                           0.004052 (Hartree/Particle)
 Thermal correction to Energy=                    0.006525
 Thermal correction to Enthalpy=                  0.007469
 Thermal correction to Gibbs Free Energy=        -0.016169
 Sum of electronic and zero-point Energies=           -100.820601
 Sum of electronic and thermal Energies=              -100.818128
 Sum of electronic and thermal Enthalpies=            -100.817184
 Sum of electronic and thermal Free Energies=         -100.840822

                     E (Thermal)             CV                S
                      KCal/Mol        Cal/Mol-Kelvin    Cal/Mol-Kelvin
 Total                    4.095              5.998             49.751
 Electronic               0.000              0.000              1.377
 Translational            0.889              2.981             35.068
 Rotational               0.592              1.987             13.014
 Vibrational              2.613              1.030              0.291

 Normal termination of Gaussian 16 at Fri Aug 22 16:35:04 2025.
