 Gaussian 16, Revision C.01,
 Gaussian 16:  ES64L-G16RevC.01  3-Jul-2019

 -----------------------------------------
 # sp b3lyp/6-311g** Force nosymm scf=(qc)
 -----------------------------------------

 -------------------
 Title Card Required
 -------------------
 Symbolic Z-matrix:
 Charge =  0 Multiplicity = 2

                          Input orientation:
 ---------------------------------------------------------------------
 Center     Atomic      Atomic             Coordinates (Angstroms)
 Number     Number       Type             X           Y           Z
 ---------------------------------------------------------------------
      1          1           0        0.000000    0.000000    0.000000
      2          1           0       -2.000000    0.000000    0.000000
      3          9           0        3.700000    0.000000    0.000000
 ---------------------------------------------------------------------

 SCF Done:  E(UB3LYP) =  -100.774367911     a.u. after   96 cycles

 Alpha  occ. eigenvalues --  -24.75813  -1.21747  -0.54938  -0.46132  -0.46132
 Alpha  occ. eigenvalues --   -0.32985
 Alpha virt. eigenvalues --   -0.10863   0.25950   0.32416   0.87022   0.91198
 Alpha virt. eigenvalues --    0.91198   1.01307   1.17207   1.24995   1.24995
 Alpha virt. eigenvalues --    1.38045   1.38045   1.51296   2.13252   2.36426

  Beta  occ. eigenvalues --  -24.72677  -1.12729  -0.42988  -0.42988  -0.33045
  Beta virt. eigenvalues --   -0.25744  -0.10696   0.25815   0.32731   0.92694
  Beta virt. eigenvalues --    0.92694   0.96308   1.05404   1.17197   1.24925
  Beta virt. eigenvalues --    1.24925   1.38265   1.38265   1.51450   2.13584

 Mulliken charges and spin densities:
               1          2
     1  H    0.000670  -0.851307
     2  H    0.003996   0.856822
     3  F   -0.004666   0.994485
 Sum of Mulliken charges =   0.00000   1.00000

 Dipole moment (field-independent basis, Debye):
    X=             -0.1260    Y=             -0.0000    Z=             -0.0000  Tot=              0.1260
 Quadrupole moment (field-independent basis, Debye-Ang):
   XX=             -6.4171   YY=             -7.7281   ZZ=             -7.7281
   XY=             -0.0002   XZ=             -0.0001   YZ=              0.0000

  Exact polarizability:      35.887      -0.000       2.008      -0.000       0.000       2.008
 Approx polarizability:      32.918      -0.000       1.939      -0.000       0.000       1.939

 ******    2 imaginary frequencies (negative Signs) ******

                      1                      2                      3
                      A                      A                      A
 Frequencies --  -1353.2594              -102.4630               553.0339
 Red. masses --      1.0078                 1.1085                 1.0122
 Frc consts  --      1.0874                 0.0069                 0.1824
 IR Inten    --      3.8729                 2.6963                 0.0006

                      4
                      A
 Frequencies --    553.0339
 Red. masses --      1.0122
 Frc consts  --      0.1824
 IR Inten    --      0.0006

 - Thermochemistry -
 -------------------
 Temperature   298.150 Kelvin.  Pressure   1.00000 Atm.
 Atom     1 has atomic number  1 and mass   1.00783

 Molecular mass:    21.01405 amu.
 Principal axes and moments of inertia in atomic units:
                           1         2         3
     Eigenvalues --     0.00000 150.95067 150.95067
           X            1.00000  -0.00000   0.00000
           Y            0.00000   1.00000   0.00000
           Z            0.00000   0.00000   1.00000
 This molecule is a prolate symmetric top.
 Rotational symmetry number  1.
 Rotational temperature (Kelvin)      0.57379
 Rotational constant (GHZ):          11.955835
    2 imaginary frequencies ignored.
 Zero-point vibrational energy       6615.8 (Joules/Mol)
                                    1.58120 (Kcal/Mol)
 Warning -- explicit consideration of   2 degrees of freedom as
           vibrations may cause significant error
 Vibrational temperatures:    795.69   795.69
          (Kelvin)

 Zero-point correction=                           0.002520 (Hartree/Particle)
 Thermal correction to Energy=                    0.005256
 Thermal correction to Enthalpy=                  0.006200
 Thermal correction to Gibbs Free Energy=        -0.018476
 Sum of electronic and zero-point Energies=           -100.771848
 Sum of electronic and thermal Energies=              -100.769112
 Sum of electronic and thermal Enthalpies=            -100.768168
 Sum of electronic and thermal Free Energies=         -100.792844

                     E (Thermal)             CV                S
                      KCal/Mol        Cal/Mol-Kelvin    Cal/Mol-Kelvin
 Total                    3.298              7.234             51.935
 Electronic               0.000              0.000              1.377
 Translational            0.889              2.981             35.068
 Rotational               0.592              1.987             14.413
 Vibrational              1.817              2.266              1.076
 Vibration     1          0.908              1.133              0.538
 Vibration     2          0.908              1.133              0.538

 Normal termination of Gaussian 16 at Sat Aug 23 00:02:28 2025.
