 Gaussian 16, Revision C.01,
 Gaussian 16:  ES64L-G16RevC.01  3-Jul-2019

 -----------------------------------------
 # sp b3lyp/6-311g** Force nosymm scf=(qc)
 -----------------------------------------

 -------------------
 Title Card Required
 -------------------
 Symbolic Z-matrix:
 Charge =  0 Multiplicity = 2

                          Input orientation:
 ---------------------------------------------------------------------
 Center     Atomic      Atomic             Coordinates (Angstroms)
 Number     Number       Type             X           Y           Z
 ---------------------------------------------------------------------
      1          1           0        0.000000    0.000000    0.000000
      2          1           0       -2.700000    0.000000    0.000000
      3          9           0        1.950000    0.000000    0.000000
 ---------------------------------------------------------------------

 SCF Done:  E(UB3LYP) =  -100.792750547     a.u. after   13 cycles

 Alpha  occ. eigenvalues --  -24.67752  -1.14057  -0.46708  -0.39344  -0.39344
 Alpha  occ. eigenvalues --   -0.34536
 Alpha virt. eigenvalues --   -0.14048   0.23471   0.30719   0.90135   0.94951
 Alpha virt. eigenvalues --    0.94951   1.06128   1.23054   1.23054   1.24835
 Alpha virt. eigenvalues --    1.34772   1.34772   1.62924   2.14079   2.28686

  Beta  occ. eigenvalues --  -24.65471  -1.07700  -0.38127  -0.37100  -0.37100
  Beta virt. eigenvalues --   -0.20455  -0.09164   0.24098   0.35561   0.91741
  Beta virt. eigenvalues --    0.95452   0.95452   1.08525   1.22499   1.22499
  Beta virt. eigenvalues --    1.42626   1.42626   1.42881   1.57120   2.13183

 Mulliken charges and spin densities:
               1          2
     1  H    0.195625  -0.699138
     2  H    0.011963   0.981853
     3  F   -0.207589   0.717285
 Sum of Mulliken charges =   0.00000   1.00000

 Dipole moment (field-independent basis, Debye):
    X=             -2.1491    Y=              0.0000    Z=              0.0000  Tot=              2.1491
 Quadrupole moment (field-independent basis, Debye-Ang):
   XX=             -9.6405   YY=             -7.4997   ZZ=             -7.4997
   XY=             -0.0000   XZ=             -0.0000   YZ=              0.0000

  Exact polarizability:      32.960      -0.000       2.067      -0.000       0.000       2.067
 Approx polarizability:      42.365      -0.000       1.957      -0.000      -0.000       1.957

 ******    2 imaginary frequencies (negative Signs) ******

                      1                      2                      3
                      A                      A                      A
 Frequencies --  -1252.9464              -312.6163               527.2938
 Red. masses --      1.0504                 1.0612                 1.0223
 Frc consts  --      0.9716                 0.0611                 0.1675
 IR Inten    --    107.6353                 7.3984                32.9237

                      4
                      A
 Frequencies --    527.2938
 Red. masses --      1.0223
 Frc consts  --      0.1675
 IR Inten    --     32.9237

 - Thermochemistry -
 -------------------
 Temperature   298.150 Kelvin.  Pressure   1.00000 Atm.
 Atom     1 has atomic number  1 and mass   1.00783

 Molecular mass:    21.01405 amu.
 Principal axes and moments of inertia in atomic units:
                           1         2         3
     Eigenvalues --     0.00000  83.98603  83.98603
           X            1.00000  -0.00000   0.00000
           Y            0.00000   1.00000   0.00000
           Z            0.00000   0.00000   1.00000
 This molecule is a prolate symmetric top.
 Rotational symmetry number  1.
 Rotational temperature (Kelvin)      1.03129
 Rotational constant (GHZ):          21.488587
    2 imaginary frequencies ignored.
 Zero-point vibrational energy       6307.8 (Joules/Mol)
                                    1.50761 (Kcal/Mol)
 Warning -- explicit consideration of   2 degrees of freedom as
           vibrations may cause significant error
 Vibrational temperatures:    758.66   758.66
          (Kelvin)

 Zero-point correction=                           0.002403 (Hartree/Particle)
 Thermal correction to Energy=                    0.005172
 Thermal correction to Enthalpy=                  0.006117
 Thermal correction to Gibbs Free Energy=        -0.018058
 Sum of electronic and zero-point Energies=           -100.790348
 Sum of electronic and thermal Energies=              -100.787578
 Sum of electronic and thermal Enthalpies=            -100.786634
 Sum of electronic and thermal Free Energies=         -100.810809

                     E (Thermal)             CV                S
                      KCal/Mol        Cal/Mol-Kelvin    Cal/Mol-Kelvin
 Total                    3.246              7.347             50.880
 Electronic               0.000              0.000              1.377
 Translational            0.889              2.981             35.068
 Rotational               0.592              1.987             13.248
 Vibrational              1.764              2.379              1.187
 Vibration     1          0.882              1.190              0.593
 Vibration     2          0.882              1.190              0.593

 Normal termination of Gaussian 16 at Fri Aug 22 16:53:54 2025.
