 Gaussian 16, Revision C.01,
 Gaussian 16:  ES64L-G16RevC.01  3-Jul-2019

 -----------------------------------------
 # sp b3lyp/6-311g** Force nosymm scf=(qc)
 -----------------------------------------

 -------------------
 Title Card Required
 -------------------
 Symbolic Z-matrix:
 Charge =  0 Multiplicity = 2

                          Input orientation:
 ---------------------------------------------------------------------
 Center     Atomic      Atomic             Coordinates (Angstroms)
 Number     Number       Type             X           Y           Z
 ---------------------------------------------------------------------
      1          1           0        0.000000    0.000000    0.000000
      2          1           0       -1.200000    0.000000    0.000000
      3          9           0        3.300000    0.000000    0.000000
 ---------------------------------------------------------------------

 SCF Done:  E(UB3LYP) =  -100.871995545     a.u. after  104 cycles

 Alpha  occ. eigenvalues --  -24.76486  -1.22338  -0.55535  -0.46746  -0.46687
 Alpha  occ. eigenvalues --   -0.36262
 Alpha virt. eigenvalues --   -0.03986   0.22890   0.34285   0.85886   0.90761
 Alpha virt. eigenvalues --    0.92745   1.02066   1.12970   1.12974   1.22285
 Alpha virt. eigenvalues --    1.54471   1.54475   2.08034   2.32013   2.54934

  Beta  occ. eigenvalues --  -24.73328  -1.13258  -0.43582  -0.43521  -0.36257
  Beta virt. eigenvalues --   -0.26170  -0.03977   0.22904   0.34336   0.92261
  Beta virt. eigenvalues --    0.94294   0.95348   1.06097   1.12969   1.12973
  Beta virt. eigenvalues --    1.22295   1.54470   1.54475   2.08043   2.32016

 Mulliken charges and spin densities:
               1          2
     1  H   -0.000544  -0.000220
     2  H   -0.004130  -0.000352
     3  F    0.004674   1.000572
 Sum of Mulliken charges =  -0.00000   1.00000

 Dipole moment (field-independent basis, Debye):
    X=              0.0672    Y=              0.0000    Z=             -0.0000  Tot=              0.0672
 Quadrupole moment (field-independent basis, Debye-Ang):
   XX=             -6.2116   YY=             -7.4812   ZZ=             -6.6517
   XY=              0.0000   XZ=              0.0000   YZ=              0.1210

  Exact polarizability:      16.223      -0.000       2.088       0.000       0.065       2.533
 Approx polarizability:      24.272       0.000       2.118       0.000       0.081       2.676

 ******    2 imaginary frequencies (negative Signs) ******

                      1                      2                      3
                      A                      A                      A
 Frequencies --   -453.4702               -38.6271              1470.1099
 Red. masses --      1.0078                 1.1085                 1.0102
 Frc consts  --      0.1221                 0.0010                 1.2863
 IR Inten    --      0.3512                 0.2669                 0.0009

                      4
                      A
 Frequencies --   1470.9802
 Red. masses --      1.0102
 Frc consts  --      1.2878
 IR Inten    --      0.0010

 - Thermochemistry -
 -------------------
 Temperature   298.150 Kelvin.  Pressure   1.00000 Atm.
 Atom     1 has atomic number  1 and mass   1.00783

 Molecular mass:    21.01405 amu.
 Principal axes and moments of inertia in atomic units:
                           1         2         3
     Eigenvalues --     0.00000 101.57172 101.57172
           X            1.00000  -0.00000   0.00000
           Y            0.00000   1.00000   0.00000
           Z            0.00000   0.00000   1.00000
 This molecule is a prolate symmetric top.
 Rotational symmetry number  1.
 Rotational temperature (Kelvin)      0.85274
 Rotational constant (GHZ):          17.768146
    2 imaginary frequencies ignored.
 Zero-point vibrational energy      17591.6 (Joules/Mol)
                                    4.20450 (Kcal/Mol)
 Vibrational temperatures:   2115.16  2116.41
          (Kelvin)

 Zero-point correction=                           0.006700 (Hartree/Particle)
 Thermal correction to Energy=                    0.009072
 Thermal correction to Enthalpy=                  0.010016
 Thermal correction to Gibbs Free Energy=        -0.013787
 Sum of electronic and zero-point Energies=           -100.865295
 Sum of electronic and thermal Energies=              -100.862924
 Sum of electronic and thermal Enthalpies=            -100.861979
 Sum of electronic and thermal Free Energies=         -100.885783

                     E (Thermal)             CV                S
                      KCal/Mol        Cal/Mol-Kelvin    Cal/Mol-Kelvin
 Total                    5.693              5.134             50.098
 Electronic               0.000              0.000              1.377
 Translational            0.889              2.981             35.068
 Rotational               0.592              1.987             13.626
 Vibrational              4.211              0.166              0.027

 Normal termination of Gaussian 16 at Fri Aug 22 20:42:22 2025.
