 Gaussian 16, Revision C.01,
 Gaussian 16:  ES64L-G16RevC.01  3-Jul-2019

 -----------------------------------------
 # sp b3lyp/6-311g** Force nosymm scf=(qc)
 -----------------------------------------

 -------------------
 Title Card Required
 -------------------
 Symbolic Z-matrix:
 Charge =  0 Multiplicity = 2

                          Input orientation:
 ---------------------------------------------------------------------
 Center     Atomic      Atomic             Coordinates (Angstroms)
 Number     Number       Type             X           Y           Z
 ---------------------------------------------------------------------
      1          1           0        0.000000    0.000000    0.000000
      2          1           0       -2.000000    0.000000    0.000000
      3          9           0        0.950000    0.000000    0.000000
 ---------------------------------------------------------------------

 SCF Done:  E(UB3LYP) =  -100.971669649     a.u. after    6 cycles

 Alpha  occ. eigenvalues --  -24.63768  -1.17194  -0.52779  -0.38935  -0.38935
 Alpha  occ. eigenvalues --   -0.35995
 Alpha virt. eigenvalues --    0.05340   0.24143   0.36014   0.94468   0.94468
 Alpha virt. eigenvalues --    0.98037   1.14669   1.21319   1.21319   1.36941
 Alpha virt. eigenvalues --    1.36941   1.49950   1.91784   2.19783   2.35341

  Beta  occ. eigenvalues --  -24.63699  -1.17022  -0.52399  -0.38875  -0.38875
  Beta virt. eigenvalues --   -0.12183   0.07509   0.34298   0.36417   0.94479
  Beta virt. eigenvalues --    0.94479   0.98453   1.24155   1.36010   1.36010
  Beta virt. eigenvalues --    1.41827   1.41827   1.58363   1.95339   2.35226

 Mulliken charges and spin densities:
               1          2
     1  H    0.294150   0.006044
     2  H    0.015563   0.975618
     3  F   -0.309713   0.018338
 Sum of Mulliken charges =   0.00000   1.00000

 Dipole moment (field-independent basis, Debye):
    X=             -2.1254    Y=             -0.0000    Z=             -0.0000  Tot=              2.1254
 Quadrupole moment (field-independent basis, Debye-Ang):
   XX=             -7.6570   YY=             -6.8768   ZZ=             -6.8768
   XY=             -0.0000   XZ=             -0.0000   YZ=              0.0000

  Exact polarizability:       9.771       0.000       2.473      -0.000      -0.000       2.473
 Approx polarizability:      10.494       0.000       2.458      -0.000      -0.000       2.458

                      1                      2                      3
                      A                      A                      A
 Frequencies --    171.6667               629.3828               629.3828
 Red. masses --      1.0525                 1.0289                 1.0289
 Frc consts  --      0.0183                 0.2401                 0.2401
 IR Inten    --      2.0860               141.0958               141.0958

                      4
                      A
 Frequencies --   3641.1613
 Red. masses --      1.0590
 Frc consts  --      8.2724
 IR Inten    --    180.3526

 - Thermochemistry -
 -------------------
 Temperature   298.150 Kelvin.  Pressure   1.00000 Atm.
 Atom     1 has atomic number  1 and mass   1.00783

 Molecular mass:    21.01405 amu.
 Principal axes and moments of inertia in atomic units:
                           1         2         3
     Eigenvalues --     0.00000  31.94313  31.94313
           X            1.00000  -0.00000   0.00000
           Y            0.00000   1.00000   0.00000
           Z            0.00000   0.00000   1.00000
 This molecule is a prolate symmetric top.
 Rotational symmetry number  1.
 Rotational temperature (Kelvin)      2.71150
 Rotational constant (GHZ):          56.498579
 Zero-point vibrational energy      30334.9 (Joules/Mol)
                                    7.25021 (Kcal/Mol)
 Warning -- explicit consideration of   1 degrees of freedom as
           vibrations may cause significant error
 Vibrational temperatures:    246.99   905.54   905.54  5238.82
          (Kelvin)

 Zero-point correction=                           0.011554 (Hartree/Particle)
 Thermal correction to Energy=                    0.014810
 Thermal correction to Enthalpy=                  0.015754
 Thermal correction to Gibbs Free Energy=        -0.008475
 Sum of electronic and zero-point Energies=           -100.960116
 Sum of electronic and thermal Energies=              -100.956860
 Sum of electronic and thermal Enthalpies=            -100.955916
 Sum of electronic and thermal Free Energies=         -100.980144

                     E (Thermal)             CV                S
                      KCal/Mol        Cal/Mol-Kelvin    Cal/Mol-Kelvin
 Total                    9.293              8.786             50.993
 Electronic               0.000              0.000              1.377
 Translational            0.889              2.981             35.068
 Rotational               0.592              1.987             11.327
 Vibrational              7.812              3.818              3.221
 Vibration     1          0.626              1.877              2.417

 Normal termination of Gaussian 16 at Fri Aug 22 15:58:09 2025.
