 Gaussian 16, Revision C.01,
 Gaussian 16:  ES64L-G16RevC.01  3-Jul-2019

 -----------------------------------------
 # sp b3lyp/6-311g** Force nosymm scf=(qc)
 -----------------------------------------

 -------------------
 Title Card Required
 -------------------
 Symbolic Z-matrix:
 Charge =  0 Multiplicity = 2

                          Input orientation:
 ---------------------------------------------------------------------
 Center     Atomic      Atomic             Coordinates (Angstroms)
 Number     Number       Type             X           Y           Z
 ---------------------------------------------------------------------
      1          1           0        0.000000    0.000000    0.000000
      2          1           0       -1.400000    0.000000    0.000000
      3          9           0        1.750000    0.000000    0.000000
 ---------------------------------------------------------------------

 SCF Done:  E(UB3LYP) =  -100.860333898     a.u. after   14 cycles

 Alpha  occ. eigenvalues --  -24.68130  -1.14646  -0.48537  -0.39805  -0.39805
 Alpha  occ. eigenvalues --   -0.39085
 Alpha virt. eigenvalues --   -0.07877   0.21356   0.30608   0.90063   0.93275
 Alpha virt. eigenvalues --    0.93275   1.03496   1.13846   1.13846   1.40829
 Alpha virt. eigenvalues --    1.42561   1.42561   1.93402   2.21907   2.47143

  Beta  occ. eigenvalues --  -24.65859  -1.08353  -0.39423  -0.37580  -0.37580
  Beta virt. eigenvalues --   -0.23223  -0.05384   0.23618   0.30970   0.93899
  Beta virt. eigenvalues --    0.93899   0.94422   1.07315   1.17170   1.17170
  Beta virt. eigenvalues --    1.43719   1.43719   1.45429   1.96292   2.23343

 Mulliken charges and spin densities:
               1          2
     1  H    0.136785  -0.271236
     2  H    0.070265   0.562875
     3  F   -0.207050   0.708361
 Sum of Mulliken charges =   0.00000   1.00000

 Dipole moment (field-independent basis, Debye):
    X=             -2.2390    Y=              0.0000    Z=              0.0000  Tot=              2.2390
 Quadrupole moment (field-independent basis, Debye-Ang):
   XX=             -7.7931   YY=             -7.3749   ZZ=             -7.3749
   XY=              0.0000   XZ=              0.0000   YZ=              0.0000

  Exact polarizability:      43.922      -0.000       2.215      -0.000       0.000       2.215
 Approx polarizability:      68.440      -0.000       2.164      -0.000      -0.000       2.164

 ******    2 imaginary frequencies (negative Signs) ******

                      1                      2                      3
                      A                      A                      A
 Frequencies --  -2363.8903              -453.6010              1144.6813
 Red. masses --      1.0170                 1.0976                 1.0155
 Frc consts  --      3.3485                 0.1331                 0.7839
 IR Inten    --    936.9025                 0.0803                 5.6404

                      4
                      A
 Frequencies --   1144.6813
 Red. masses --      1.0155
 Frc consts  --      0.7839
 IR Inten    --      5.6404

 - Thermochemistry -
 -------------------
 Temperature   298.150 Kelvin.  Pressure   1.00000 Atm.
 Atom     1 has atomic number  1 and mass   1.00783

 Molecular mass:    21.01405 amu.
 Principal axes and moments of inertia in atomic units:
                           1         2         3
     Eigenvalues --     0.00000  42.58883  42.58883
           X            1.00000  -0.00000   0.00000
           Y            0.00000   1.00000   0.00000
           Z            0.00000   0.00000   1.00000
 This molecule is a prolate symmetric top.
 Rotational symmetry number  1.
 Rotational temperature (Kelvin)      2.03372
 Rotational constant (GHZ):          42.375924
    2 imaginary frequencies ignored.
 Zero-point vibrational energy      13693.4 (Joules/Mol)
                                    3.27281 (Kcal/Mol)
 Vibrational temperatures:   1646.94  1646.94
          (Kelvin)

 Zero-point correction=                           0.005216 (Hartree/Particle)
 Thermal correction to Energy=                    0.007618
 Thermal correction to Enthalpy=                  0.008562
 Thermal correction to Gibbs Free Energy=        -0.014457
 Sum of electronic and zero-point Energies=           -100.855118
 Sum of electronic and thermal Energies=              -100.852716
 Sum of electronic and thermal Enthalpies=            -100.851772
 Sum of electronic and thermal Free Energies=         -100.874791

                     E (Thermal)             CV                S
                      KCal/Mol        Cal/Mol-Kelvin    Cal/Mol-Kelvin
 Total                    4.780              5.456             48.448
 Electronic               0.000              0.000              1.377
 Translational            0.889              2.981             35.068
 Rotational               0.592              1.987             11.899
 Vibrational              3.299              0.488              0.104

 Normal termination of Gaussian 16 at Fri Aug 22 16:39:55 2025.
