 Gaussian 16, Revision C.01,
 Gaussian 16:  ES64L-G16RevC.01  3-Jul-2019

 -----------------------------------------
 # sp b3lyp/6-311g** Force nosymm scf=(qc)
 -----------------------------------------

 -------------------
 Title Card Required
 -------------------
 Symbolic Z-matrix:
 Charge =  0 Multiplicity = 2

                          Input orientation:
 ---------------------------------------------------------------------
 Center     Atomic      Atomic             Coordinates (Angstroms)
 Number     Number       Type             X           Y           Z
 ---------------------------------------------------------------------
      1          1           0        0.000000    0.000000    0.000000
      2          1           0       -1.000000    0.000000    0.000000
      3          9           0        2.250000    0.000000    0.000000
 ---------------------------------------------------------------------

 SCF Done:  E(UB3LYP) =  -100.908473876     a.u. after    9 cycles

 Alpha  occ. eigenvalues --  -24.74908  -1.20933  -0.54289  -0.45400  -0.45400
 Alpha  occ. eigenvalues --   -0.40336
 Alpha virt. eigenvalues --    0.00410   0.21343   0.39077   0.89233   0.91365
 Alpha virt. eigenvalues --    0.91365   1.07782   1.07782   1.10912   1.41306
 Alpha virt. eigenvalues --    1.64418   1.64418   2.21149   2.35292   2.58600

  Beta  occ. eigenvalues --  -24.71873  -1.12252  -0.42367  -0.42367  -0.40178
  Beta virt. eigenvalues --   -0.25786   0.01198   0.21786   0.39482   0.92782
  Beta virt. eigenvalues --    0.92782   0.97319   1.08269   1.08269   1.14408
  Beta virt. eigenvalues --    1.42668   1.64765   1.64765   2.21830   2.35761

 Mulliken charges and spin densities:
               1          2
     1  H   -0.000091  -0.032504
     2  H    0.030163   0.075638
     3  F   -0.030072   0.956866
 Sum of Mulliken charges =   0.00000   1.00000

 Dipole moment (field-independent basis, Debye):
    X=             -0.4772    Y=             -0.0000    Z=              0.0000  Tot=              0.4772
 Quadrupole moment (field-independent basis, Debye-Ang):
   XX=             -6.0979   YY=             -7.2386   ZZ=             -7.2386
   XY=             -0.0000   XZ=              0.0000   YZ=             -0.0000

  Exact polarizability:      27.187      -0.000       2.130       0.000      -0.000       2.130
 Approx polarizability:      32.363       0.000       2.152       0.000       0.000       2.152

 ******    1 imaginary frequencies (negative Signs) ******

                      1                      2                      3
                      A                      A                      A
 Frequencies --   -292.0226              1465.0045              1465.0045
 Red. masses --      1.1079                 1.0111                 1.0111
 Frc consts  --      0.0557                 1.2785                 1.2785
 IR Inten    --     43.5687                 0.0339                 0.0339

                      4
                      A
 Frequencies --   1655.9035
 Red. masses --      1.0083
 Frc consts  --      1.6290
 IR Inten    --    275.2124

 - Thermochemistry -
 -------------------
 Temperature   298.150 Kelvin.  Pressure   1.00000 Atm.
 Atom     1 has atomic number  1 and mass   1.00783

 Molecular mass:    21.01405 amu.
 Principal axes and moments of inertia in atomic units:
                           1         2         3
     Eigenvalues --     0.00000  51.01315  51.01315
           X            1.00000  -0.00000   0.00000
           Y            0.00000   1.00000   0.00000
           Z            0.00000   0.00000   1.00000
 This molecule is a prolate symmetric top.
 Rotational symmetry number  1.
 Rotational temperature (Kelvin)      1.69787
 Rotational constant (GHZ):          35.377961
    1 imaginary frequencies ignored.
 Zero-point vibrational energy      27429.8 (Joules/Mol)
                                    6.55589 (Kcal/Mol)
 Vibrational temperatures:   2107.81  2107.81  2382.48
          (Kelvin)

 Zero-point correction=                           0.010447 (Hartree/Particle)
 Thermal correction to Energy=                    0.012822
 Thermal correction to Enthalpy=                  0.013766
 Thermal correction to Gibbs Free Energy=        -0.009390
 Sum of electronic and zero-point Energies=           -100.898026
 Sum of electronic and thermal Energies=              -100.895652
 Sum of electronic and thermal Enthalpies=            -100.894708
 Sum of electronic and thermal Free Energies=         -100.917864

                     E (Thermal)             CV                S
                      KCal/Mol        Cal/Mol-Kelvin    Cal/Mol-Kelvin
 Total                    8.046              5.180             48.736
 Electronic               0.000              0.000              1.377
 Translational            0.889              2.981             35.068
 Rotational               0.592              1.987             12.258
 Vibrational              6.565              0.212              0.033

 Normal termination of Gaussian 16 at Fri Aug 22 17:15:28 2025.
