 Gaussian 16, Revision C.01,
 Gaussian 16:  ES64L-G16RevC.01  3-Jul-2019

 -----------------------------------------
 # sp b3lyp/6-311g** Force nosymm scf=(qc)
 -----------------------------------------

 -------------------
 Title Card Required
 -------------------
 Symbolic Z-matrix:
 Charge =  0 Multiplicity = 2

                          Input orientation:
 ---------------------------------------------------------------------
 Center     Atomic      Atomic             Coordinates (Angstroms)
 Number     Number       Type             X           Y           Z
 ---------------------------------------------------------------------
      1          1           0        0.000000    0.000000    0.000000
      2          1           0       -3.300000    0.000000    0.000000
      3          9           0        2.400000    0.000000    0.000000
 ---------------------------------------------------------------------

 SCF Done:  E(UB3LYP) =  -100.769206047     a.u. after   22 cycles

 Alpha  occ. eigenvalues --  -24.68220  -1.09378  -0.39326  -0.39326  -0.35890
 Alpha  occ. eigenvalues --   -0.32905
 Alpha virt. eigenvalues --   -0.22857   0.21276   0.28108   0.94682   0.95310
 Alpha virt. eigenvalues --    0.95310   1.08552   1.21816   1.21816   1.24446
 Alpha virt. eigenvalues --    1.24446   1.24623   1.33149   2.12171   2.15394

  Beta  occ. eigenvalues --  -24.70994  -1.17254  -0.50086  -0.42087  -0.42087
  Beta virt. eigenvalues --   -0.11357  -0.04424   0.32955   0.40272   0.89461
  Beta virt. eigenvalues --    0.94009   0.94009   1.06538   1.39556   1.39556
  Beta virt. eigenvalues --    1.46025   1.48190   1.48190   1.48726   2.35880

 Mulliken charges and spin densities:
               1          2
     1  H    0.106820   0.877347
     2  H    0.001670   0.998358
     3  F   -0.108490  -0.875705
 Sum of Mulliken charges =   0.00000   1.00000

 Dipole moment (field-independent basis, Debye):
    X=             -1.3450    Y=              0.0000    Z=             -0.0000  Tot=              1.3450
 Quadrupole moment (field-independent basis, Debye-Ang):
   XX=             -9.5597   YY=             -7.5450   ZZ=             -7.5450
   XY=              0.0000   XZ=             -0.0000   YZ=             -0.0000

  Exact polarizability:      32.464       0.000       2.029      -0.000      -0.000       2.029
 Approx polarizability:      42.469       0.000       1.923      -0.000       0.000       1.923

 ******    1 imaginary frequencies (negative Signs) ******

                      1                      2                      3
                      A                      A                      A
 Frequencies --   -665.2605               106.8147               265.7945
 Red. masses --      1.0616                 1.0500                 1.0222
 Frc consts  --      0.2768                 0.0071                 0.0425
 IR Inten    --     77.7723                 0.3266                10.7018

                      4
                      A
 Frequencies --    265.7945
 Red. masses --      1.0222
 Frc consts  --      0.0425
 IR Inten    --     10.7018

 - Thermochemistry -
 -------------------
 Temperature   298.150 Kelvin.  Pressure   1.00000 Atm.
 Atom     1 has atomic number  1 and mass   1.00783

 Molecular mass:    21.01405 amu.
 Principal axes and moments of inertia in atomic units:
                           1         2         3
     Eigenvalues --     0.00000 126.33734 126.33734
           X            1.00000  -0.00000   0.00000
           Y            0.00000   1.00000   0.00000
           Z            0.00000   0.00000   1.00000
 This molecule is a prolate symmetric top.
 Rotational symmetry number  1.
 Rotational temperature (Kelvin)      0.68558
 Rotational constant (GHZ):          14.285098
    1 imaginary frequencies ignored.
 Zero-point vibrational energy       3818.5 (Joules/Mol)
                                    0.91264 (Kcal/Mol)
 Warning -- explicit consideration of   3 degrees of freedom as
           vibrations may cause significant error
 Vibrational temperatures:    153.68   382.42   382.42
          (Kelvin)

 Zero-point correction=                           0.001454 (Hartree/Particle)
 Thermal correction to Energy=                    0.005466
 Thermal correction to Enthalpy=                  0.006410
 Thermal correction to Gibbs Free Energy=        -0.020709
 Sum of electronic and zero-point Energies=           -100.767752
 Sum of electronic and thermal Energies=              -100.763740
 Sum of electronic and thermal Enthalpies=            -100.762796
 Sum of electronic and thermal Free Energies=         -100.789916

                     E (Thermal)             CV                S
                      KCal/Mol        Cal/Mol-Kelvin    Cal/Mol-Kelvin
 Total                    3.430             10.383             57.078
 Electronic               0.000              0.000              1.377
 Translational            0.889              2.981             35.068
 Rotational               0.592              1.987             14.060
 Vibrational              1.949              5.415              6.573
 Vibration     1          0.606              1.944              3.326
 Vibration     2          0.672              1.736              1.623
 Vibration     3          0.672              1.736              1.623

 Normal termination of Gaussian 16 at Fri Aug 22 17:33:22 2025.
