 Gaussian 16, Revision C.01,
 Gaussian 16:  ES64L-G16RevC.01  3-Jul-2019

 -----------------------------------------
 # sp b3lyp/6-311g** Force nosymm scf=(qc)
 -----------------------------------------

 -------------------
 Title Card Required
 -------------------
 Symbolic Z-matrix:
 Charge =  0 Multiplicity = 2

                          Input orientation:
 ---------------------------------------------------------------------
 Center     Atomic      Atomic             Coordinates (Angstroms)
 Number     Number       Type             X           Y           Z
 ---------------------------------------------------------------------
      1          1           0        0.000000    0.000000    0.000000
      2          1           0       -3.300000    0.000000    0.000000
      3          9           0        0.950000    0.000000    0.000000
 ---------------------------------------------------------------------

 SCF Done:  E(UB3LYP) =  -100.971053408     a.u. after    6 cycles

 Alpha  occ. eigenvalues --  -24.64097  -1.17434  -0.52735  -0.39205  -0.39205
 Alpha  occ. eigenvalues --   -0.33831
 Alpha virt. eigenvalues --    0.02008   0.24499   0.36789   0.94229   0.94229
 Alpha virt. eigenvalues --    0.98143   1.23419   1.23688   1.23688   1.30265
 Alpha virt. eigenvalues --    1.36486   1.36486   1.96072   2.14375   2.34948

  Beta  occ. eigenvalues --  -24.64094  -1.17428  -0.52727  -0.39203  -0.39203
  Beta virt. eigenvalues --   -0.06230   0.02825   0.36151   0.39305   0.94230
  Beta virt. eigenvalues --    0.94230   0.98140   1.29702   1.36484   1.36484
  Beta virt. eigenvalues --    1.50010   1.50101   1.50101   1.96112   2.34895

 Mulliken charges and spin densities:
               1          2
     1  H    0.307342   0.000832
     2  H    0.001403   0.998268
     3  F   -0.308745   0.000900
 Sum of Mulliken charges =   0.00000   1.00000

 Dipole moment (field-independent basis, Debye):
    X=             -1.9744    Y=              0.0000    Z=              0.0000  Tot=              1.9744
 Quadrupole moment (field-independent basis, Debye-Ang):
   XX=             -8.0335   YY=             -6.9161   ZZ=             -6.9161
   XY=              0.0000   XZ=              0.0000   YZ=              0.0000

  Exact polarizability:       6.368       0.000       2.416      -0.000      -0.000       2.416
 Approx polarizability:       7.519       0.000       2.392       0.000      -0.000       2.392

 ******    1 imaginary frequencies (negative Signs) ******

                      1                      2                      3
                      A                      A                      A
 Frequencies --    -55.5432               674.4360               674.4360
 Red. masses --      1.0532                 1.0368                 1.0368
 Frc consts  --      0.0019                 0.2779                 0.2779
 IR Inten    --      0.0863               173.3648               173.3648

                      4
                      A
 Frequencies --   3679.0319
 Red. masses --      1.0583
 Frc consts  --      8.4400
 IR Inten    --     97.9648

 - Thermochemistry -
 -------------------
 Temperature   298.150 Kelvin.  Pressure   1.00000 Atm.
 Atom     1 has atomic number  1 and mass   1.00783

 Molecular mass:    21.01405 amu.
 Principal axes and moments of inertia in atomic units:
                           1         2         3
     Eigenvalues --     0.00000  63.58791  63.58791
           X            1.00000  -0.00000   0.00000
           Y            0.00000   1.00000   0.00000
           Z            0.00000   0.00000   1.00000
 This molecule is a prolate symmetric top.
 Rotational symmetry number  1.
 Rotational temperature (Kelvin)      1.36211
 Rotational constant (GHZ):          28.381831
    1 imaginary frequencies ignored.
 Zero-point vibrational energy      30073.5 (Joules/Mol)
                                    7.18775 (Kcal/Mol)
 Vibrational temperatures:    970.36   970.36  5293.31
          (Kelvin)

 Zero-point correction=                           0.011454 (Hartree/Particle)
 Thermal correction to Energy=                    0.014062
 Thermal correction to Enthalpy=                  0.015006
 Thermal correction to Gibbs Free Energy=        -0.008664
 Sum of electronic and zero-point Energies=           -100.959599
 Sum of electronic and thermal Energies=              -100.956992
 Sum of electronic and thermal Enthalpies=            -100.956048
 Sum of electronic and thermal Free Energies=         -100.979717

                     E (Thermal)             CV                S
                      KCal/Mol        Cal/Mol-Kelvin    Cal/Mol-Kelvin
 Total                    8.824              6.726             49.817
 Electronic               0.000              0.000              1.377
 Translational            0.889              2.981             35.068
 Rotational               0.592              1.987             12.695
 Vibrational              7.343              1.758              0.676

 Normal termination of Gaussian 16 at Fri Aug 22 15:59:01 2025.
