 Gaussian 16, Revision C.01,
 Gaussian 16:  ES64L-G16RevC.01  3-Jul-2019

 -----------------------------------------
 # sp b3lyp/6-311g** Force nosymm scf=(qc)
 -----------------------------------------

 -------------------
 Title Card Required
 -------------------
 Symbolic Z-matrix:
 Charge =  0 Multiplicity = 2

                          Input orientation:
 ---------------------------------------------------------------------
 Center     Atomic      Atomic             Coordinates (Angstroms)
 Number     Number       Type             X           Y           Z
 ---------------------------------------------------------------------
      1          1           0        0.000000    0.000000    0.000000
      2          1           0       -2.450000    0.000000    0.000000
      3          9           0        1.800000    0.000000    0.000000
 ---------------------------------------------------------------------

 SCF Done:  E(UB3LYP) =  -100.808216110     a.u. after   16 cycles

 Alpha  occ. eigenvalues --  -24.66380  -1.12592  -0.45263  -0.38151  -0.38151
 Alpha  occ. eigenvalues --   -0.35515
 Alpha virt. eigenvalues --   -0.14422   0.23603   0.29235   0.93551   0.94950
 Alpha virt. eigenvalues --    0.94950   1.06359   1.22130   1.22130   1.25380
 Alpha virt. eigenvalues --    1.33761   1.33761   1.69971   2.12965   2.26156

  Beta  occ. eigenvalues --  -24.64464  -1.07315  -0.39042  -0.36282  -0.36282
  Beta virt. eigenvalues --   -0.19481  -0.09947   0.24420   0.34445   0.94860
  Beta virt. eigenvalues --    0.95004   0.95004   1.08529   1.24242   1.24242
  Beta virt. eigenvalues --    1.40701   1.40701   1.42445   1.65622   2.13294

 Mulliken charges and spin densities:
               1          2
     1  H    0.233631  -0.568999
     2  H    0.022558   0.966513
     3  F   -0.256189   0.602486
 Sum of Mulliken charges =   0.00000   1.00000

 Dipole moment (field-independent basis, Debye):
    X=             -2.5182    Y=              0.0000    Z=              0.0000  Tot=              2.5182
 Quadrupole moment (field-independent basis, Debye-Ang):
   XX=             -9.4481   YY=             -7.4659   ZZ=             -7.4659
   XY=              0.0000   XZ=              0.0000   YZ=             -0.0000

  Exact polarizability:      34.680       0.000       2.100       0.000       0.000       2.100
 Approx polarizability:      44.723       0.000       1.997       0.000       0.000       1.997

 ******    2 imaginary frequencies (negative Signs) ******

                      1                      2                      3
                      A                      A                      A
 Frequencies --  -1572.7027              -399.2988               666.1875
 Red. masses --      1.0480                 1.0637                 1.0221
 Frc consts  --      1.5272                 0.0999                 0.2673
 IR Inten    --     92.3376                13.0436                44.3878

                      4
                      A
 Frequencies --    666.1875
 Red. masses --      1.0221
 Frc consts  --      0.2673
 IR Inten    --     44.3878

 - Thermochemistry -
 -------------------
 Temperature   298.150 Kelvin.  Pressure   1.00000 Atm.
 Atom     1 has atomic number  1 and mass   1.00783

 Molecular mass:    21.01405 amu.
 Principal axes and moments of inertia in atomic units:
                           1         2         3
     Eigenvalues --     0.00000  70.35003  70.35003
           X            1.00000  -0.00000   0.00000
           Y            0.00000   1.00000   0.00000
           Z            0.00000   0.00000   1.00000
 This molecule is a prolate symmetric top.
 Rotational symmetry number  1.
 Rotational temperature (Kelvin)      1.23119
 Rotational constant (GHZ):          25.653736
    2 imaginary frequencies ignored.
 Zero-point vibrational energy       7969.4 (Joules/Mol)
                                    1.90473 (Kcal/Mol)
 Vibrational temperatures:    958.50   958.50
          (Kelvin)

 Zero-point correction=                           0.003035 (Hartree/Particle)
 Thermal correction to Energy=                    0.005650
 Thermal correction to Enthalpy=                  0.006594
 Thermal correction to Gibbs Free Energy=        -0.017181
 Sum of electronic and zero-point Energies=           -100.805181
 Sum of electronic and thermal Energies=              -100.802566
 Sum of electronic and thermal Enthalpies=            -100.801622
 Sum of electronic and thermal Free Energies=         -100.825397

                     E (Thermal)             CV                S
                      KCal/Mol        Cal/Mol-Kelvin    Cal/Mol-Kelvin
 Total                    3.545              6.759             50.039
 Electronic               0.000              0.000              1.377
 Translational            0.889              2.981             35.068
 Rotational               0.592              1.987             12.896
 Vibrational              2.064              1.791              0.698

 Normal termination of Gaussian 16 at Fri Aug 22 16:43:57 2025.
