 Gaussian 16, Revision C.01,
 Gaussian 16:  ES64L-G16RevC.01  3-Jul-2019

 -----------------------------------------
 # sp b3lyp/6-311g** Force nosymm scf=(qc)
 -----------------------------------------

 -------------------
 Title Card Required
 -------------------
 Symbolic Z-matrix:
 Charge =  0 Multiplicity = 2

                          Input orientation:
 ---------------------------------------------------------------------
 Center     Atomic      Atomic             Coordinates (Angstroms)
 Number     Number       Type             X           Y           Z
 ---------------------------------------------------------------------
      1          1           0        0.000000    0.000000    0.000000
      2          1           0       -2.850000    0.000000    0.000000
      3          9           0        3.150000    0.000000    0.000000
 ---------------------------------------------------------------------

 SCF Done:  E(UB3LYP) =  -100.761602334     a.u. after   23 cycles

 Alpha  occ. eigenvalues --  -24.74610  -1.20630  -0.53729  -0.45113  -0.45113
 Alpha  occ. eigenvalues --   -0.32685
 Alpha virt. eigenvalues --   -0.09057   0.25017   0.34838   0.88909   0.91958
 Alpha virt. eigenvalues --    0.91958   1.03121   1.24873   1.24873   1.25979
 Alpha virt. eigenvalues --    1.42343   1.42343   1.42747   2.15723   2.38718

  Beta  occ. eigenvalues --  -24.71547  -1.11844  -0.42047  -0.42047  -0.33443
  Beta virt. eigenvalues --   -0.25075  -0.08006   0.24918   0.36197   0.93431
  Beta virt. eigenvalues --    0.93431   0.97807   1.07018   1.23979   1.23979
  Beta virt. eigenvalues --    1.25015   1.44026   1.44026   1.44248   2.16357

 Mulliken charges and spin densities:
               1          2
     1  H    0.024718  -0.959576
     2  H    0.001853   0.988927
     3  F   -0.026571   0.970648
 Sum of Mulliken charges =  -0.00000   1.00000

 Dipole moment (field-independent basis, Debye):
    X=             -0.4551    Y=             -0.0000    Z=              0.0000  Tot=              0.4551
 Quadrupole moment (field-independent basis, Debye-Ang):
   XX=             -7.8519   YY=             -7.6342   ZZ=             -7.6342
   XY=             -0.0000   XZ=              0.0000   YZ=              0.0000

  Exact polarizability:      35.328      -0.000       2.022       0.000       0.000       2.022
 Approx polarizability:      31.435      -0.000       1.926       0.000      -0.000       1.926

 ******    2 imaginary frequencies (negative Signs) ******

                      1                      2                      3
                      A                      A                      A
 Frequencies --   -462.5540              -184.7993               169.2399
 Red. masses --      1.0142                 1.1009                 1.0168
 Frc consts  --      0.1278                 0.0222                 0.0172
 IR Inten    --     21.2736                 9.0938                 0.5206

                      4
                      A
 Frequencies --    169.2399
 Red. masses --      1.0168
 Frc consts  --      0.0172
 IR Inten    --      0.5206

 - Thermochemistry -
 -------------------
 Temperature   298.150 Kelvin.  Pressure   1.00000 Atm.
 Atom     1 has atomic number  1 and mass   1.00783

 Molecular mass:    21.01405 amu.
 Principal axes and moments of inertia in atomic units:
                           1         2         3
     Eigenvalues --     0.00000 150.82439 150.82439
           X            1.00000  -0.00000   0.00000
           Y            0.00000   1.00000   0.00000
           Z            0.00000   0.00000   1.00000
 This molecule is a prolate symmetric top.
 Rotational symmetry number  1.
 Rotational temperature (Kelvin)      0.57427
 Rotational constant (GHZ):          11.965845
    2 imaginary frequencies ignored.
 Zero-point vibrational energy       2024.6 (Joules/Mol)
                                    0.48388 (Kcal/Mol)
 Warning -- explicit consideration of   2 degrees of freedom as
           vibrations may cause significant error
 Vibrational temperatures:    243.50   243.50
          (Kelvin)

 Zero-point correction=                           0.000771 (Hartree/Particle)
 Thermal correction to Energy=                    0.004353
 Thermal correction to Enthalpy=                  0.005297
 Thermal correction to Gibbs Free Energy=        -0.021189
 Sum of electronic and zero-point Energies=           -100.760831
 Sum of electronic and thermal Energies=              -100.757250
 Sum of electronic and thermal Enthalpies=            -100.756306
 Sum of electronic and thermal Free Energies=         -100.782792

                     E (Thermal)             CV                S
                      KCal/Mol        Cal/Mol-Kelvin    Cal/Mol-Kelvin
 Total                    2.731              8.729             55.745
 Electronic               0.000              0.000              1.377
 Translational            0.889              2.981             35.068
 Rotational               0.592              1.987             14.412
 Vibrational              1.250              3.761              4.888
 Vibration     1          0.625              1.880              2.444
 Vibration     2          0.625              1.880              2.444

 Normal termination of Gaussian 16 at Fri Aug 22 20:11:01 2025.
