 Gaussian 16, Revision C.01,
 Gaussian 16:  ES64L-G16RevC.01  3-Jul-2019

 -----------------------------------------
 # sp b3lyp/6-311g** Force nosymm scf=(qc)
 -----------------------------------------

 -------------------
 Title Card Required
 -------------------
 Symbolic Z-matrix:
 Charge =  0 Multiplicity = 2

                          Input orientation:
 ---------------------------------------------------------------------
 Center     Atomic      Atomic             Coordinates (Angstroms)
 Number     Number       Type             X           Y           Z
 ---------------------------------------------------------------------
      1          1           0        0.000000    0.000000    0.000000
      2          1           0       -3.500000    0.000000    0.000000
      3          9           0        3.050000    0.000000    0.000000
 ---------------------------------------------------------------------

 SCF Done:  E(UB3LYP) =  -100.760758236     a.u. after   22 cycles

 Alpha  occ. eigenvalues --  -24.74257  -1.20305  -0.53377  -0.44819  -0.44819
 Alpha  occ. eigenvalues --   -0.32517
 Alpha virt. eigenvalues --   -0.08004   0.24059   0.36165   0.89213   0.92172
 Alpha virt. eigenvalues --    0.92172   1.03623   1.24990   1.24990   1.25148
 Alpha virt. eigenvalues --    1.44110   1.44110   1.44375   2.14843   2.40286

  Beta  occ. eigenvalues --  -24.71218  -1.11592  -0.41776  -0.41776  -0.33614
  Beta virt. eigenvalues --   -0.24872  -0.06561   0.23966   0.37876   0.93637
  Beta virt. eigenvalues --    0.93637   0.97967   1.07394   1.23728   1.23728
  Beta virt. eigenvalues --    1.24090   1.45826   1.46080   1.46080   2.15073

 Mulliken charges and spin densities:
               1          2
     1  H    0.033179  -0.961082
     2  H    0.000415   0.997931
     3  F   -0.033594   0.963151
 Sum of Mulliken charges =  -0.00000   1.00000

 Dipole moment (field-independent basis, Debye):
    X=             -0.5333    Y=             -0.0000    Z=             -0.0000  Tot=              0.5333
 Quadrupole moment (field-independent basis, Debye-Ang):
   XX=             -8.2037   YY=             -7.6116   ZZ=             -7.6116
   XY=              0.0000   XZ=             -0.0000   YZ=              0.0000

  Exact polarizability:      31.539       0.000       2.026      -0.000       0.000       2.026
 Approx polarizability:      31.241       0.000       1.927      -0.000       0.000       1.927

 ******    2 imaginary frequencies (negative Signs) ******

                      1                      2                      3
                      A                      A                      A
 Frequencies --   -361.4956              -117.0561               126.6548
 Red. masses --      1.0451                 1.0666                 1.0197
 Frc consts  --      0.0805                 0.0086                 0.0096
 IR Inten    --     35.7580                 0.7233                 1.0265

                      4
                      A
 Frequencies --    126.6548
 Red. masses --      1.0197
 Frc consts  --      0.0096
 IR Inten    --      1.0265

 - Thermochemistry -
 -------------------
 Temperature   298.150 Kelvin.  Pressure   1.00000 Atm.
 Atom     1 has atomic number  1 and mass   1.00783

 Molecular mass:    21.01405 amu.
 Principal axes and moments of inertia in atomic units:
                           1         2         3
     Eigenvalues --     0.00000 171.97879 171.97879
           X            1.00000  -0.00000   0.00000
           Y            0.00000   1.00000   0.00000
           Z            0.00000   0.00000   1.00000
 This molecule is a prolate symmetric top.
 Rotational symmetry number  1.
 Rotational temperature (Kelvin)      0.50363
 Rotational constant (GHZ):          10.493976
    2 imaginary frequencies ignored.
 Zero-point vibrational energy       1515.1 (Joules/Mol)
                                    0.36212 (Kcal/Mol)
 Warning -- explicit consideration of   2 degrees of freedom as
           vibrations may cause significant error
 Vibrational temperatures:    182.23   182.23
          (Kelvin)

 Zero-point correction=                           0.000577 (Hartree/Particle)
 Thermal correction to Energy=                    0.004307
 Thermal correction to Enthalpy=                  0.005251
 Thermal correction to Gibbs Free Energy=        -0.021884
 Sum of electronic and zero-point Energies=           -100.760181
 Sum of electronic and thermal Energies=              -100.756451
 Sum of electronic and thermal Enthalpies=            -100.755507
 Sum of electronic and thermal Free Energies=         -100.782642

                     E (Thermal)             CV                S
                      KCal/Mol        Cal/Mol-Kelvin    Cal/Mol-Kelvin
 Total                    2.703              8.821             57.110
 Electronic               0.000              0.000              1.377
 Translational            0.889              2.981             35.068
 Rotational               0.592              1.987             14.673
 Vibrational              1.222              3.853              5.992
 Vibration     1          0.611              1.926              2.996
 Vibration     2          0.611              1.926              2.996

 Normal termination of Gaussian 16 at Fri Aug 22 19:45:20 2025.
