 Gaussian 16, Revision C.01,
 Gaussian 16:  ES64L-G16RevC.01  3-Jul-2019

 -----------------------------------------
 # sp b3lyp/6-311g** Force nosymm scf=(qc)
 -----------------------------------------

 -------------------
 Title Card Required
 -------------------
 Symbolic Z-matrix:
 Charge =  0 Multiplicity = 2

                          Input orientation:
 ---------------------------------------------------------------------
 Center     Atomic      Atomic             Coordinates (Angstroms)
 Number     Number       Type             X           Y           Z
 ---------------------------------------------------------------------
      1          1           0        0.000000    0.000000    0.000000
      2          1           0       -3.050000    0.000000    0.000000
      3          9           0        3.300000    0.000000    0.000000
 ---------------------------------------------------------------------

 SCF Done:  E(UB3LYP) =  -100.760351059     a.u. after   28 cycles

 Alpha  occ. eigenvalues --  -24.74997  -1.20988  -0.54118  -0.45439  -0.45439
 Alpha  occ. eigenvalues --   -0.32514
 Alpha virt. eigenvalues --   -0.08238   0.24783   0.35704   0.88313   0.91721
 Alpha virt. eigenvalues --    0.91721   1.02458   1.25018   1.25018   1.25666
 Alpha virt. eigenvalues --    1.43588   1.43588   1.43637   2.15584   2.39640

  Beta  occ. eigenvalues --  -24.71908  -1.12121  -0.42345  -0.42345  -0.33149
  Beta virt. eigenvalues --   -0.25282  -0.07424   0.24591   0.36896   0.93202
  Beta virt. eigenvalues --    0.93202   0.97320   1.06399   1.24275   1.24275
  Beta virt. eigenvalues --    1.24881   1.44797   1.44891   1.44891   2.16036

 Mulliken charges and spin densities:
               1          2
     1  H    0.018139  -0.972516
     2  H    0.000855   0.993447
     3  F   -0.018994   0.979069
 Sum of Mulliken charges =  -0.00000   1.00000

 Dipole moment (field-independent basis, Debye):
    X=             -0.3346    Y=             -0.0000    Z=              0.0000  Tot=              0.3346
 Quadrupole moment (field-independent basis, Debye-Ang):
   XX=             -7.6442   YY=             -7.6295   ZZ=             -7.6295
   XY=              0.0000   XZ=             -0.0000   YZ=              0.0000

  Exact polarizability:      30.653       0.000       2.027      -0.000       0.000       2.027
 Approx polarizability:      25.940       0.000       1.929      -0.000      -0.000       1.929

 ******    2 imaginary frequencies (negative Signs) ******

                      1                      2                      3
                      A                      A                      A
 Frequencies --   -368.8704              -153.1687               129.1380
 Red. masses --      1.0168                 1.0978                 1.0170
 Frc consts  --      0.0815                 0.0152                 0.0100
 IR Inten    --     16.3110                 5.0509                 0.2854

                      4
                      A
 Frequencies --    129.1380
 Red. masses --      1.0170
 Frc consts  --      0.0100
 IR Inten    --      0.2854

 - Thermochemistry -
 -------------------
 Temperature   298.150 Kelvin.  Pressure   1.00000 Atm.
 Atom     1 has atomic number  1 and mass   1.00783

 Molecular mass:    21.01405 amu.
 Principal axes and moments of inertia in atomic units:
                           1         2         3
     Eigenvalues --     0.00000 168.24064 168.24064
           X            1.00000  -0.00000   0.00000
           Y            0.00000   1.00000   0.00000
           Z            0.00000   0.00000   1.00000
 This molecule is a prolate symmetric top.
 Rotational symmetry number  1.
 Rotational temperature (Kelvin)      0.51482
 Rotational constant (GHZ):          10.727142
    2 imaginary frequencies ignored.
 Zero-point vibrational energy       1544.8 (Joules/Mol)
                                    0.36922 (Kcal/Mol)
 Warning -- explicit consideration of   2 degrees of freedom as
           vibrations may cause significant error
 Vibrational temperatures:    185.80   185.80
          (Kelvin)

 Zero-point correction=                           0.000588 (Hartree/Particle)
 Thermal correction to Energy=                    0.004310
 Thermal correction to Enthalpy=                  0.005254
 Thermal correction to Gibbs Free Energy=        -0.021825
 Sum of electronic and zero-point Energies=           -100.759763
 Sum of electronic and thermal Energies=              -100.756042
 Sum of electronic and thermal Enthalpies=            -100.755097
 Sum of electronic and thermal Free Energies=         -100.782176

                     E (Thermal)             CV                S
                      KCal/Mol        Cal/Mol-Kelvin    Cal/Mol-Kelvin
 Total                    2.704              8.816             56.992
 Electronic               0.000              0.000              1.377
 Translational            0.889              2.981             35.068
 Rotational               0.592              1.987             14.629
 Vibrational              1.223              3.848              5.918
 Vibration     1          0.612              1.924              2.959
 Vibration     2          0.612              1.924              2.959

 Normal termination of Gaussian 16 at Fri Aug 22 20:49:31 2025.
