 Gaussian 16, Revision C.01,
 Gaussian 16:  ES64L-G16RevC.01  3-Jul-2019

 -----------------------------------------
 # sp b3lyp/6-311g** Force nosymm scf=(qc)
 -----------------------------------------

 -------------------
 Title Card Required
 -------------------
 Symbolic Z-matrix:
 Charge =  0 Multiplicity = 2

                          Input orientation:
 ---------------------------------------------------------------------
 Center     Atomic      Atomic             Coordinates (Angstroms)
 Number     Number       Type             X           Y           Z
 ---------------------------------------------------------------------
      1          1           0        0.000000    0.000000    0.000000
      2          1           0       -2.400000    0.000000    0.000000
      3          9           0        1.500000    0.000000    0.000000
 ---------------------------------------------------------------------

 SCF Done:  E(UB3LYP) =  -100.856672502     a.u. after    8 cycles

 Alpha  occ. eigenvalues --  -24.64047  -1.09730  -0.43493  -0.36205  -0.36205
 Alpha  occ. eigenvalues --   -0.35982
 Alpha virt. eigenvalues --   -0.13162   0.23273   0.26732   0.93912   0.93912
 Alpha virt. eigenvalues --    1.03404   1.10104   1.21476   1.21476   1.25513
 Alpha virt. eigenvalues --    1.32320   1.32320   1.74625   2.12116   2.20988

  Beta  occ. eigenvalues --  -24.63686  -1.08776  -0.42442  -0.35863  -0.35863
  Beta virt. eigenvalues --   -0.16338  -0.07896   0.25357   0.34999   0.93790
  Beta virt. eigenvalues --    0.93790   1.04300   1.10885   1.30746   1.30746
  Beta virt. eigenvalues --    1.41375   1.41375   1.43386   1.74264   2.17824

 Mulliken charges and spin densities:
               1          2
     1  H    0.329936  -0.085856
     2  H    0.022988   0.972442
     3  F   -0.352923   0.113414
 Sum of Mulliken charges =   0.00000   1.00000

 Dipole moment (field-independent basis, Debye):
    X=             -2.8643    Y=              0.0000    Z=              0.0000  Tot=              2.8643
 Quadrupole moment (field-independent basis, Debye-Ang):
   XX=             -9.2591   YY=             -7.3220   ZZ=             -7.3220
   XY=              0.0000   XZ=             -0.0000   YZ=              0.0000

  Exact polarizability:      23.267      -0.000       2.206       0.000      -0.000       2.206
 Approx polarizability:      35.794      -0.000       2.134       0.000      -0.000       2.134

 ******    2 imaginary frequencies (negative Signs) ******

                      1                      2                      3
                      A                      A                      A
 Frequencies --  -1476.2289              -278.2282               989.9004
 Red. masses --      1.0463                 1.0654                 1.0245
 Frc consts  --      1.3434                 0.0486                 0.5915
 IR Inten    --     85.3790                 2.6692                93.3303

                      4
                      A
 Frequencies --    989.9004
 Red. masses --      1.0245
 Frc consts  --      0.5915
 IR Inten    --     93.3303

 - Thermochemistry -
 -------------------
 Temperature   298.150 Kelvin.  Pressure   1.00000 Atm.
 Atom     1 has atomic number  1 and mass   1.00783

 Molecular mass:    21.01405 amu.
 Principal axes and moments of inertia in atomic units:
                           1         2         3
     Eigenvalues --     0.00000  57.80547  57.80547
           X            1.00000  -0.00000   0.00000
           Y            0.00000   1.00000   0.00000
           Z            0.00000   0.00000   1.00000
 This molecule is a prolate symmetric top.
 Rotational symmetry number  1.
 Rotational temperature (Kelvin)      1.49837
 Rotational constant (GHZ):          31.220941
    2 imaginary frequencies ignored.
 Zero-point vibrational energy      11841.8 (Joules/Mol)
                                    2.83027 (Kcal/Mol)
 Vibrational temperatures:   1424.25  1424.25
          (Kelvin)

 Zero-point correction=                           0.004510 (Hartree/Particle)
 Thermal correction to Energy=                    0.006947
 Thermal correction to Enthalpy=                  0.007892
 Thermal correction to Gibbs Free Energy=        -0.015459
 Sum of electronic and zero-point Energies=           -100.852162
 Sum of electronic and thermal Energies=              -100.849725
 Sum of electronic and thermal Enthalpies=            -100.848781
 Sum of electronic and thermal Free Energies=         -100.872132

                     E (Thermal)             CV                S
                      KCal/Mol        Cal/Mol-Kelvin    Cal/Mol-Kelvin
 Total                    4.360              5.745             49.146
 Electronic               0.000              0.000              1.377
 Translational            0.889              2.981             35.068
 Rotational               0.592              1.987             12.506
 Vibrational              2.878              0.777              0.195

 Normal termination of Gaussian 16 at Fri Aug 22 16:25:51 2025.
