 Gaussian 16, Revision C.01,
 Gaussian 16:  ES64L-G16RevC.01  3-Jul-2019

 -----------------------------------------
 # sp b3lyp/6-311g** Force nosymm scf=(qc)
 -----------------------------------------

 -------------------
 Title Card Required
 -------------------
 Symbolic Z-matrix:
 Charge =  0 Multiplicity = 2

                          Input orientation:
 ---------------------------------------------------------------------
 Center     Atomic      Atomic             Coordinates (Angstroms)
 Number     Number       Type             X           Y           Z
 ---------------------------------------------------------------------
      1          1           0        0.000000    0.000000    0.000000
      2          1           0       -2.050000    0.000000    0.000000
      3          9           0        1.550000    0.000000    0.000000
 ---------------------------------------------------------------------

 SCF Done:  E(UB3LYP) =  -100.850111900     a.u. after   11 cycles

 Alpha  occ. eigenvalues --  -24.64154  -1.10153  -0.43950  -0.37134  -0.36295
 Alpha  occ. eigenvalues --   -0.36295
 Alpha virt. eigenvalues --   -0.12373   0.23258   0.27593   0.94401   0.94401
 Alpha virt. eigenvalues --    1.00438   1.05836   1.20206   1.20206   1.31153
 Alpha virt. eigenvalues --    1.33446   1.33446   1.73754   2.09994   2.25890

  Beta  occ. eigenvalues --  -24.63246  -1.07728  -0.41179  -0.35428  -0.35428
  Beta virt. eigenvalues --   -0.18525  -0.08312   0.25623   0.32551   0.94175
  Beta virt. eigenvalues --    0.94175   1.02983   1.07864   1.29279   1.29279
  Beta virt. eigenvalues --    1.37745   1.37745   1.44375   1.73079   2.14737

 Mulliken charges and spin densities:
               1          2
     1  H    0.294584  -0.218735
     2  H    0.044434   0.933791
     3  F   -0.339018   0.284944
 Sum of Mulliken charges =   0.00000   1.00000

 Dipole moment (field-independent basis, Debye):
    X=             -3.0132    Y=              0.0000    Z=              0.0000  Tot=              3.0132
 Quadrupole moment (field-independent basis, Debye-Ang):
   XX=             -8.9391   YY=             -7.3383   ZZ=             -7.3383
   XY=              0.0000   XZ=              0.0000   YZ=             -0.0000

  Exact polarizability:      31.143       0.000       2.202       0.000       0.000       2.202
 Approx polarizability:      43.398       0.000       2.126       0.000      -0.000       2.126

 ******    2 imaginary frequencies (negative Signs) ******

                      1                      2                      3
                      A                      A                      A
 Frequencies --  -1977.9371              -431.8286               938.3990
 Red. masses --      1.0389                 1.0732                 1.0217
 Frc consts  --      2.3946                 0.1179                 0.5301
 IR Inten    --      0.0504                 3.4783                64.2817

                      4
                      A
 Frequencies --    938.3990
 Red. masses --      1.0217
 Frc consts  --      0.5301
 IR Inten    --     64.2817

 - Thermochemistry -
 -------------------
 Temperature   298.150 Kelvin.  Pressure   1.00000 Atm.
 Atom     1 has atomic number  1 and mass   1.00783

 Molecular mass:    21.01405 amu.
 Principal axes and moments of inertia in atomic units:
                           1         2         3
     Eigenvalues --     0.00000  50.71180  50.71180
           X            1.00000  -0.00000   0.00000
           Y            0.00000   1.00000   0.00000
           Z            0.00000   0.00000   1.00000
 This molecule is a prolate symmetric top.
 Rotational symmetry number  1.
 Rotational temperature (Kelvin)      1.70796
 Rotational constant (GHZ):          35.588189
    2 imaginary frequencies ignored.
 Zero-point vibrational energy      11225.7 (Joules/Mol)
                                    2.68302 (Kcal/Mol)
 Vibrational temperatures:   1350.15  1350.15
          (Kelvin)

 Zero-point correction=                           0.004276 (Hartree/Particle)
 Thermal correction to Energy=                    0.006729
 Thermal correction to Enthalpy=                  0.007674
 Thermal correction to Gibbs Free Energy=        -0.015575
 Sum of electronic and zero-point Energies=           -100.845836
 Sum of electronic and thermal Energies=              -100.843382
 Sum of electronic and thermal Enthalpies=            -100.842438
 Sum of electronic and thermal Free Energies=         -100.865687

                     E (Thermal)             CV                S
                      KCal/Mol        Cal/Mol-Kelvin    Cal/Mol-Kelvin
 Total                    4.223              5.867             48.931
 Electronic               0.000              0.000              1.377
 Translational            0.889              2.981             35.068
 Rotational               0.592              1.987             12.246
 Vibrational              2.742              0.899              0.240

 Normal termination of Gaussian 16 at Fri Aug 22 16:28:19 2025.
