 Gaussian 16, Revision C.01,
 Gaussian 16:  ES64L-G16RevC.01  3-Jul-2019

 -----------------------------------------
 # sp b3lyp/6-311g** Force nosymm scf=(qc)
 -----------------------------------------

 -------------------
 Title Card Required
 -------------------
 Symbolic Z-matrix:
 Charge =  0 Multiplicity = 2

                          Input orientation:
 ---------------------------------------------------------------------
 Center     Atomic      Atomic             Coordinates (Angstroms)
 Number     Number       Type             X           Y           Z
 ---------------------------------------------------------------------
      1          1           0        0.000000    0.000000    0.000000
      2          1           0       -3.550000    0.000000    0.000000
      3          9           0        3.050000    0.000000    0.000000
 ---------------------------------------------------------------------

 SCF Done:  E(UB3LYP) =  -100.760716363     a.u. after   21 cycles

 Alpha  occ. eigenvalues --  -24.74256  -1.20303  -0.53376  -0.44817  -0.44817
 Alpha  occ. eigenvalues --   -0.32505
 Alpha virt. eigenvalues --   -0.07943   0.24021   0.36207   0.89207   0.92173
 Alpha virt. eigenvalues --    0.92173   1.03619   1.24999   1.24999   1.25131
 Alpha virt. eigenvalues --    1.44204   1.44204   1.44472   2.14778   2.40375

  Beta  occ. eigenvalues --  -24.71217  -1.11591  -0.41775  -0.41775  -0.33612
  Beta virt. eigenvalues --   -0.24871  -0.06478   0.23922   0.37936   0.93638
  Beta virt. eigenvalues --    0.93638   0.97960   1.07387   1.23728   1.23728
  Beta virt. eigenvalues --    1.24070   1.45927   1.46174   1.46174   2.14990

 Mulliken charges and spin densities:
               1          2
     1  H    0.033255  -0.961305
     2  H    0.000365   0.998172
     3  F   -0.033620   0.963133
 Sum of Mulliken charges =  -0.00000   1.00000

 Dipole moment (field-independent basis, Debye):
    X=             -0.5329    Y=              0.0000    Z=              0.0000  Tot=              0.5329
 Quadrupole moment (field-independent basis, Debye-Ang):
   XX=             -8.2101   YY=             -7.6108   ZZ=             -7.6108
   XY=              0.0000   XZ=              0.0000   YZ=             -0.0000

  Exact polarizability:      31.372       0.000       2.027       0.000      -0.000       2.027
 Approx polarizability:      31.141       0.000       1.927       0.000       0.000       1.927

 ******    2 imaginary frequencies (negative Signs) ******

                      1                      2                      3
                      A                      A                      A
 Frequencies --   -358.6630              -111.2270               125.2067
 Red. masses --      1.0465                 1.0652                 1.0199
 Frc consts  --      0.0793                 0.0078                 0.0094
 IR Inten    --     35.8811                 0.5759                 1.0351

                      4
                      A
 Frequencies --    125.2067
 Red. masses --      1.0199
 Frc consts  --      0.0094
 IR Inten    --      1.0351

 - Thermochemistry -
 -------------------
 Temperature   298.150 Kelvin.  Pressure   1.00000 Atm.
 Atom     1 has atomic number  1 and mass   1.00783

 Molecular mass:    21.01405 amu.
 Principal axes and moments of inertia in atomic units:
                           1         2         3
     Eigenvalues --     0.00000 174.17900 174.17900
           X            1.00000  -0.00000   0.00000
           Y            0.00000   1.00000   0.00000
           Z            0.00000   0.00000   1.00000
 This molecule is a prolate symmetric top.
 Rotational symmetry number  1.
 Rotational temperature (Kelvin)      0.49727
 Rotational constant (GHZ):          10.361417
    2 imaginary frequencies ignored.
 Zero-point vibrational energy       1497.8 (Joules/Mol)
                                    0.35798 (Kcal/Mol)
 Warning -- explicit consideration of   2 degrees of freedom as
           vibrations may cause significant error
 Vibrational temperatures:    180.14   180.14
          (Kelvin)

 Zero-point correction=                           0.000570 (Hartree/Particle)
 Thermal correction to Energy=                    0.004306
 Thermal correction to Enthalpy=                  0.005250
 Thermal correction to Gibbs Free Energy=        -0.021918
 Sum of electronic and zero-point Energies=           -100.760146
 Sum of electronic and thermal Energies=              -100.756410
 Sum of electronic and thermal Enthalpies=            -100.755466
 Sum of electronic and thermal Free Energies=         -100.782634

                     E (Thermal)             CV                S
                      KCal/Mol        Cal/Mol-Kelvin    Cal/Mol-Kelvin
 Total                    2.702              8.824             57.180
 Electronic               0.000              0.000              1.377
 Translational            0.889              2.981             35.068
 Rotational               0.592              1.987             14.698
 Vibrational              1.221              3.856              6.037
 Vibration     1          0.610              1.928              3.018
 Vibration     2          0.610              1.928              3.018

 Normal termination of Gaussian 16 at Fri Aug 22 19:45:23 2025.
