 Gaussian 16, Revision C.01,
 Gaussian 16:  ES64L-G16RevC.01  3-Jul-2019

 -----------------------------------------
 # sp b3lyp/6-311g** Force nosymm scf=(qc)
 -----------------------------------------

 -------------------
 Title Card Required
 -------------------
 Symbolic Z-matrix:
 Charge =  0 Multiplicity = 2

                          Input orientation:
 ---------------------------------------------------------------------
 Center     Atomic      Atomic             Coordinates (Angstroms)
 Number     Number       Type             X           Y           Z
 ---------------------------------------------------------------------
      1          1           0        0.000000    0.000000    0.000000
      2          1           0       -2.750000    0.000000    0.000000
      3          9           0        3.900000    0.000000    0.000000
 ---------------------------------------------------------------------

 SCF Done:  E(UB3LYP) =  -100.760581079     a.u. after   38 cycles

 Alpha  occ. eigenvalues --  -24.75846  -1.21776  -0.54971  -0.46156  -0.46156
 Alpha  occ. eigenvalues --   -0.32426
 Alpha virt. eigenvalues --   -0.08403   0.25461   0.35629   0.86684   0.91189
 Alpha virt. eigenvalues --    0.91189   1.01144   1.25148   1.25148   1.26375
 Alpha virt. eigenvalues --    1.43249   1.43249   1.43715   2.16059   2.38436

  Beta  occ. eigenvalues --  -24.72704  -1.12740  -0.43005  -0.43005  -0.32605
  Beta virt. eigenvalues --   -0.25721  -0.08164   0.25294   0.35950   0.92687
  Beta virt. eigenvalues --    0.92687   0.96042   1.05264   1.24952   1.24952
  Beta virt. eigenvalues --    1.26156   1.43602   1.43602   1.44067   2.16140

 Mulliken charges and spin densities:
               1          2
     1  H    0.002616  -0.981444
     2  H    0.000562   0.985029
     3  F   -0.003179   0.996416
 Sum of Mulliken charges =   0.00000   1.00000

 Dipole moment (field-independent basis, Debye):
    X=             -0.0714    Y=             -0.0000    Z=              0.0000  Tot=              0.0714
 Quadrupole moment (field-independent basis, Debye-Ang):
   XX=             -6.8302   YY=             -7.6486   ZZ=             -7.6486
   XY=             -0.0000   XZ=             -0.0000   YZ=              0.0000

  Exact polarizability:      17.628      -0.000       2.025      -0.000       0.000       2.025
 Approx polarizability:      13.170      -0.000       1.933      -0.000      -0.000       1.933

 ******    2 imaginary frequencies (negative Signs) ******

                      1                      2                      3
                      A                      A                      A
 Frequencies --   -465.9440               -80.4087               168.5198
 Red. masses --      1.0079                 1.1084                 1.0143
 Frc consts  --      0.1289                 0.0042                 0.0170
 IR Inten    --      0.9388                 0.9961                 0.0054

                      4
                      A
 Frequencies --    168.5198
 Red. masses --      1.0143
 Frc consts  --      0.0170
 IR Inten    --      0.0054

 - Thermochemistry -
 -------------------
 Temperature   298.150 Kelvin.  Pressure   1.00000 Atm.
 Atom     1 has atomic number  1 and mass   1.00783

 Molecular mass:    21.01405 amu.
 Principal axes and moments of inertia in atomic units:
                           1         2         3
     Eigenvalues --     0.00000 194.68649 194.68649
           X            1.00000  -0.00000   0.00000
           Y            0.00000   1.00000   0.00000
           Z            0.00000   0.00000   1.00000
 This molecule is a prolate symmetric top.
 Rotational symmetry number  1.
 Rotational temperature (Kelvin)      0.44489
 Rotational constant (GHZ):           9.269987
    2 imaginary frequencies ignored.
 Zero-point vibrational energy       2015.9 (Joules/Mol)
                                    0.48182 (Kcal/Mol)
 Warning -- explicit consideration of   2 degrees of freedom as
           vibrations may cause significant error
 Vibrational temperatures:    242.46   242.46
          (Kelvin)

 Zero-point correction=                           0.000768 (Hartree/Particle)
 Thermal correction to Energy=                    0.004352
 Thermal correction to Enthalpy=                  0.005296
 Thermal correction to Gibbs Free Energy=        -0.021439
 Sum of electronic and zero-point Energies=           -100.759813
 Sum of electronic and thermal Energies=              -100.756229
 Sum of electronic and thermal Enthalpies=            -100.755285
 Sum of electronic and thermal Free Energies=         -100.782020

                     E (Thermal)             CV                S
                      KCal/Mol        Cal/Mol-Kelvin    Cal/Mol-Kelvin
 Total                    2.731              8.730             56.268
 Electronic               0.000              0.000              1.377
 Translational            0.889              2.981             35.068
 Rotational               0.592              1.987             14.919
 Vibrational              1.250              3.762              4.904
 Vibration     1          0.625              1.881              2.452
 Vibration     2          0.625              1.881              2.452

 Normal termination of Gaussian 16 at Sat Aug 23 01:25:48 2025.
