 Gaussian 16, Revision C.01,
 Gaussian 16:  ES64L-G16RevC.01  3-Jul-2019

 -----------------------------------------
 # sp b3lyp/6-311g** Force nosymm scf=(qc)
 -----------------------------------------

 -------------------
 Title Card Required
 -------------------
 Symbolic Z-matrix:
 Charge =  0 Multiplicity = 2

                          Input orientation:
 ---------------------------------------------------------------------
 Center     Atomic      Atomic             Coordinates (Angstroms)
 Number     Number       Type             X           Y           Z
 ---------------------------------------------------------------------
      1          1           0        0.000000    0.000000    0.000000
      2          1           0       -3.600000    0.000000    0.000000
      3          9           0        3.950000    0.000000    0.000000
 ---------------------------------------------------------------------

 SCF Done:  E(UB3LYP) =  -100.758581482     a.u. after   35 cycles

 Alpha  occ. eigenvalues --  -24.75854  -1.21783  -0.54979  -0.46161  -0.46161
 Alpha  occ. eigenvalues --   -0.32253
 Alpha virt. eigenvalues --   -0.06502   0.24309   0.37759   0.86622   0.91187
 Alpha virt. eigenvalues --    0.91187   1.01118   1.25247   1.25247   1.25352
 Alpha virt. eigenvalues --    1.45763   1.45986   1.45986   2.14964   2.41499

  Beta  occ. eigenvalues --  -24.72710  -1.12743  -0.43009  -0.43009  -0.32463
  Beta virt. eigenvalues --   -0.25718  -0.06285   0.24149   0.38074   0.92685
  Beta virt. eigenvalues --    0.92685   0.95986   1.05239   1.25020   1.25020
  Beta virt. eigenvalues --    1.25111   1.46110   1.46315   1.46315   2.14952

 Mulliken charges and spin densities:
               1          2
     1  H    0.002820  -0.995124
     2  H    0.000056   0.998321
     3  F   -0.002876   0.996803
 Sum of Mulliken charges =   0.00000   1.00000

 Dipole moment (field-independent basis, Debye):
    X=             -0.0599    Y=             -0.0000    Z=             -0.0000  Tot=              0.0599
 Quadrupole moment (field-independent basis, Debye-Ang):
   XX=             -6.9368   YY=             -7.6224   ZZ=             -7.6224
   XY=              0.0000   XZ=              0.0000   YZ=              0.0000

  Exact polarizability:      11.638      -0.000       2.031       0.000       0.000       2.031
 Approx polarizability:       8.661       0.000       1.937       0.000      -0.000       1.937

 ******    2 imaginary frequencies (negative Signs) ******

                      1                      2                      3
                      A                      A                      A
 Frequencies --   -177.5884               -69.7300                59.0031
 Red. masses --      1.0128                 1.1025                 1.0169
 Frc consts  --      0.0188                 0.0032                 0.0021
 IR Inten    --      1.0678                 0.4535                 0.0078

                      4
                      A
 Frequencies --     59.0031
 Red. masses --      1.0169
 Frc consts  --      0.0021
 IR Inten    --      0.0078

 - Thermochemistry -
 -------------------
 Temperature   298.150 Kelvin.  Pressure   1.00000 Atm.
 Atom     1 has atomic number  1 and mass   1.00783

 Molecular mass:    21.01405 amu.
 Principal axes and moments of inertia in atomic units:
                           1         2         3
     Eigenvalues --     0.00000 238.47875 238.47875
           X            1.00000  -0.00000   0.00000
           Y            0.00000   1.00000   0.00000
           Z            0.00000   0.00000   1.00000
 This molecule is a prolate symmetric top.
 Rotational symmetry number  1.
 Rotational temperature (Kelvin)      0.36319
 Rotational constant (GHZ):           7.567723
    2 imaginary frequencies ignored.
 Zero-point vibrational energy        705.8 (Joules/Mol)
                                    0.16870 (Kcal/Mol)
 Warning -- explicit consideration of   2 degrees of freedom as
           vibrations may cause significant error
 Vibrational temperatures:     84.89    84.89
          (Kelvin)

 Zero-point correction=                           0.000269 (Hartree/Particle)
 Thermal correction to Energy=                    0.004262
 Thermal correction to Enthalpy=                  0.005206
 Thermal correction to Gibbs Free Energy=        -0.023658
 Sum of electronic and zero-point Energies=           -100.758313
 Sum of electronic and thermal Energies=              -100.754320
 Sum of electronic and thermal Enthalpies=            -100.753376
 Sum of electronic and thermal Free Energies=         -100.782239

                     E (Thermal)             CV                S
                      KCal/Mol        Cal/Mol-Kelvin    Cal/Mol-Kelvin
 Total                    2.674              8.916             60.748
 Electronic               0.000              0.000              1.377
 Translational            0.889              2.981             35.068
 Rotational               0.592              1.987             15.322
 Vibrational              1.193              3.948              8.981
 Vibration     1          0.596              1.974              4.490
 Vibration     2          0.596              1.974              4.490

 Normal termination of Gaussian 16 at Sat Aug 23 01:42:01 2025.
