 Gaussian 16, Revision C.01,
 Gaussian 16:  ES64L-G16RevC.01  3-Jul-2019

 -----------------------------------------
 # sp b3lyp/6-311g** Force nosymm scf=(qc)
 -----------------------------------------

 -------------------
 Title Card Required
 -------------------
 Symbolic Z-matrix:
 Charge =  0 Multiplicity = 2

                          Input orientation:
 ---------------------------------------------------------------------
 Center     Atomic      Atomic             Coordinates (Angstroms)
 Number     Number       Type             X           Y           Z
 ---------------------------------------------------------------------
      1          1           0        0.000000    0.000000    0.000000
      2          1           0       -3.350000    0.000000    0.000000
      3          9           0        2.250000    0.000000    0.000000
 ---------------------------------------------------------------------

 SCF Done:  E(UB3LYP) =  -100.774043605     a.u. after   16 cycles

 Alpha  occ. eigenvalues --  -24.67346  -1.08786  -0.38619  -0.38619  -0.36570
 Alpha  occ. eigenvalues --   -0.33090
 Alpha virt. eigenvalues --   -0.22155   0.20875   0.28047   0.92237   0.95591
 Alpha virt. eigenvalues --    0.95591   1.08336   1.21541   1.21541   1.24308
 Alpha virt. eigenvalues --    1.24308   1.24451   1.39607   2.11600   2.15210

  Beta  occ. eigenvalues --  -24.70008  -1.16312  -0.49075  -0.41262  -0.41262
  Beta virt. eigenvalues --   -0.12311  -0.04603   0.31735   0.40125   0.88748
  Beta virt. eigenvalues --    0.94439   0.94439   1.06296   1.38095   1.38095
  Beta virt. eigenvalues --    1.47870   1.47876   1.47876   1.50389   2.33453

 Mulliken charges and spin densities:
               1          2
     1  H    0.134245   0.840754
     2  H    0.001658   0.998376
     3  F   -0.135903  -0.839130
 Sum of Mulliken charges =   0.00000   1.00000

 Dipole moment (field-independent basis, Debye):
    X=             -1.5632    Y=             -0.0000    Z=              0.0000  Tot=              1.5632
 Quadrupole moment (field-independent basis, Debye-Ang):
   XX=             -9.7880   YY=             -7.5240   ZZ=             -7.5240
   XY=             -0.0000   XZ=              0.0000   YZ=              0.0000

  Exact polarizability:      30.307      -0.000       2.037       0.000       0.000       2.037
 Approx polarizability:      41.268      -0.000       1.927       0.000      -0.000       1.927

 ******    1 imaginary frequencies (negative Signs) ******

                      1                      2                      3
                      A                      A                      A
 Frequencies --   -797.6708                92.2231               330.4540
 Red. masses --      1.0602                 1.0513                 1.0234
 Frc consts  --      0.3975                 0.0053                 0.0658
 IR Inten    --     90.6031                 0.3644                16.9252

                      4
                      A
 Frequencies --    330.4540
 Red. masses --      1.0234
 Frc consts  --      0.0658
 IR Inten    --     16.9252

 - Thermochemistry -
 -------------------
 Temperature   298.150 Kelvin.  Pressure   1.00000 Atm.
 Atom     1 has atomic number  1 and mass   1.00783

 Molecular mass:    21.01405 amu.
 Principal axes and moments of inertia in atomic units:
                           1         2         3
     Eigenvalues --     0.00000 120.44842 120.44842
           X            1.00000  -0.00000   0.00000
           Y            0.00000   1.00000   0.00000
           Z            0.00000   0.00000   1.00000
 This molecule is a prolate symmetric top.
 Rotational symmetry number  1.
 Rotational temperature (Kelvin)      0.71910
 Rotational constant (GHZ):          14.983519
    1 imaginary frequencies ignored.
 Zero-point vibrational energy       4504.7 (Joules/Mol)
                                    1.07665 (Kcal/Mol)
 Warning -- explicit consideration of   3 degrees of freedom as
           vibrations may cause significant error
 Vibrational temperatures:    132.69   475.45   475.45
          (Kelvin)

 Zero-point correction=                           0.001716 (Hartree/Particle)
 Thermal correction to Energy=                    0.005593
 Thermal correction to Enthalpy=                  0.006537
 Thermal correction to Gibbs Free Energy=        -0.020326
 Sum of electronic and zero-point Energies=           -100.772328
 Sum of electronic and thermal Energies=              -100.768451
 Sum of electronic and thermal Enthalpies=            -100.767507
 Sum of electronic and thermal Free Energies=         -100.794370

                     E (Thermal)             CV                S
                      KCal/Mol        Cal/Mol-Kelvin    Cal/Mol-Kelvin
 Total                    3.509             10.152             56.538
 Electronic               0.000              0.000              1.377
 Translational            0.889              2.981             35.068
 Rotational               0.592              1.987             13.965
 Vibrational              2.028              5.184              6.128
 Vibration     1          0.602              1.955              3.612
 Vibration     2          0.713              1.615              1.258
 Vibration     3          0.713              1.615              1.258

 Normal termination of Gaussian 16 at Fri Aug 22 17:17:41 2025.
