 Gaussian 16, Revision C.01,
 Gaussian 16:  ES64L-G16RevC.01  3-Jul-2019

 -----------------------------------------
 # sp b3lyp/6-311g** Force nosymm scf=(qc)
 -----------------------------------------

 -------------------
 Title Card Required
 -------------------
 Symbolic Z-matrix:
 Charge =  0 Multiplicity = 2

                          Input orientation:
 ---------------------------------------------------------------------
 Center     Atomic      Atomic             Coordinates (Angstroms)
 Number     Number       Type             X           Y           Z
 ---------------------------------------------------------------------
      1          1           0        0.000000    0.000000    0.000000
      2          1           0       -1.850000    0.000000    0.000000
      3          9           0        2.400000    0.000000    0.000000
 ---------------------------------------------------------------------

 SCF Done:  E(UB3LYP) =  -100.791668827     a.u. after   17 cycles

 Alpha  occ. eigenvalues --  -24.71454  -1.17675  -0.50575  -0.42458  -0.42458
 Alpha  occ. eigenvalues --   -0.35476
 Alpha virt. eigenvalues --   -0.12793   0.24413   0.31530   0.88856   0.93757
 Alpha virt. eigenvalues --    0.93757   1.04354   1.19058   1.22256   1.22256
 Alpha virt. eigenvalues --    1.34678   1.34678   1.56448   2.11847   2.36701

  Beta  occ. eigenvalues --  -24.68646  -1.09695  -0.39661  -0.39661  -0.35495
  Beta virt. eigenvalues --   -0.23491  -0.11860   0.26528   0.31053   0.94620
  Beta virt. eigenvalues --    0.95086   0.95086   1.07444   1.22605   1.22605
  Beta virt. eigenvalues --    1.22979   1.35928   1.35928   1.56920   2.12628

 Mulliken charges and spin densities:
               1          2
     1  H    0.057765  -0.680777
     2  H    0.038278   0.794369
     3  F   -0.096043   0.886408
 Sum of Mulliken charges =  -0.00000   1.00000

 Dipole moment (field-independent basis, Debye):
    X=             -1.5092    Y=              0.0000    Z=              0.0000  Tot=              1.5092
 Quadrupole moment (field-independent basis, Debye-Ang):
   XX=             -8.0086   YY=             -7.6580   ZZ=             -7.6580
   XY=             -0.0000   XZ=             -0.0000   YZ=             -0.0000

  Exact polarizability:      60.789      -0.000       2.018      -0.000      -0.000       2.018
 Approx polarizability:      71.456       0.000       1.947       0.000       0.000       1.947

 ******    2 imaginary frequencies (negative Signs) ******

                      1                      2                      3
                      A                      A                      A
 Frequencies --  -1669.6847              -420.8153               703.3159
 Red. masses --      1.0091                 1.1070                 1.0151
 Frc consts  --      1.6575                 0.1155                 0.2958
 IR Inten    --    146.7916                52.2707                 1.4178

                      4
                      A
 Frequencies --    703.3159
 Red. masses --      1.0151
 Frc consts  --      0.2958
 IR Inten    --      1.4178

 - Thermochemistry -
 -------------------
 Temperature   298.150 Kelvin.  Pressure   1.00000 Atm.
 Atom     1 has atomic number  1 and mass   1.00783

 Molecular mass:    21.01405 amu.
 Principal axes and moments of inertia in atomic units:
                           1         2         3
     Eigenvalues --     0.00000  78.10427  78.10427
           X            1.00000  -0.00000   0.00000
           Y            0.00000   1.00000   0.00000
           Z            0.00000   0.00000   1.00000
 This molecule is a prolate symmetric top.
 Rotational symmetry number  1.
 Rotational temperature (Kelvin)      1.10895
 Rotational constant (GHZ):          23.106818
    2 imaginary frequencies ignored.
 Zero-point vibrational energy       8413.5 (Joules/Mol)
                                    2.01088 (Kcal/Mol)
 Vibrational temperatures:   1011.91  1011.91
          (Kelvin)

 Zero-point correction=                           0.003205 (Hartree/Particle)
 Thermal correction to Energy=                    0.005788
 Thermal correction to Enthalpy=                  0.006732
 Thermal correction to Gibbs Free Energy=        -0.017098
 Sum of electronic and zero-point Energies=           -100.788464
 Sum of electronic and thermal Energies=              -100.785881
 Sum of electronic and thermal Enthalpies=            -100.784937
 Sum of electronic and thermal Free Energies=         -100.808767

                     E (Thermal)             CV                S
                      KCal/Mol        Cal/Mol-Kelvin    Cal/Mol-Kelvin
 Total                    3.632              6.614             50.154
 Electronic               0.000              0.000              1.377
 Translational            0.889              2.981             35.068
 Rotational               0.592              1.987             13.104
 Vibrational              2.151              1.646              0.604

 Normal termination of Gaussian 16 at Fri Aug 22 17:32:00 2025.
