 Gaussian 16, Revision C.01,
 Gaussian 16:  ES64L-G16RevC.01  3-Jul-2019

 -----------------------------------------
 # sp b3lyp/6-311g** Force nosymm scf=(qc)
 -----------------------------------------

 -------------------
 Title Card Required
 -------------------
 Symbolic Z-matrix:
 Charge =  0 Multiplicity = 2

                          Input orientation:
 ---------------------------------------------------------------------
 Center     Atomic      Atomic             Coordinates (Angstroms)
 Number     Number       Type             X           Y           Z
 ---------------------------------------------------------------------
      1          1           0        0.000000    0.000000    0.000000
      2          1           0       -0.750000    0.000000    0.000000
      3          9           0        2.600000    0.000000    0.000000
 ---------------------------------------------------------------------

 SCF Done:  E(UB3LYP) =  -100.934529520     a.u. after  106 cycles

 Alpha  occ. eigenvalues --  -24.76874  -1.22650  -0.55828  -0.47293  -0.46975
 Alpha  occ. eigenvalues --   -0.42665
 Alpha virt. eigenvalues --    0.06686   0.20405   0.47941   0.85658   0.90523
 Alpha virt. eigenvalues --    0.93518   1.08820   1.08838   1.10833   1.55465
 Alpha virt. eigenvalues --    1.82673   1.82691   1.98402   2.39797   3.28492

  Beta  occ. eigenvalues --  -24.73709  -1.13557  -0.44515  -0.43802  -0.42267
  Beta virt. eigenvalues --   -0.26439   0.06766   0.20458   0.48052   0.92019
  Beta virt. eigenvalues --    0.95099   0.95440   1.08828   1.08837   1.14382
  Beta virt. eigenvalues --    1.55469   1.82672   1.82689   1.98415   2.39807

 Mulliken charges and spin densities:
               1          2
     1  H   -0.007718  -0.001796
     2  H   -0.006713  -0.000338
     3  F    0.014430   1.002135
 Sum of Mulliken charges =   0.00000   1.00000

 Dipole moment (field-independent basis, Debye):
    X=              0.1439    Y=              0.0000    Z=              0.0000  Tot=              0.1439
 Quadrupole moment (field-independent basis, Debye-Ang):
   XX=             -6.0305   YY=             -6.2469   ZZ=             -6.8169
   XY=             -0.0000   XZ=             -0.0000   YZ=              0.3241

  Exact polarizability:       8.892      -0.000       2.352      -0.000       0.168       2.057
 Approx polarizability:      10.060      -0.000       2.530      -0.000       0.213       2.155

                      1                      2                      3
                      A                      A                      A
 Frequencies --    160.5022               422.5802               449.8953
 Red. masses --      1.1085                 1.0094                 1.0094
 Frc consts  --      0.0168                 0.1062                 0.1204
 IR Inten    --      0.5702                 0.0162                 0.0179

                      4
                      A
 Frequencies --   4338.7836
 Red. masses --      1.0078
 Frc consts  --     11.1782
 IR Inten    --      2.3853

 - Thermochemistry -
 -------------------
 Temperature   298.150 Kelvin.  Pressure   1.00000 Atm.
 Atom     1 has atomic number  1 and mass   1.00783

 Molecular mass:    21.01405 amu.
 Principal axes and moments of inertia in atomic units:
                           1         2         3
     Eigenvalues --     0.00000  58.60845  58.60845
           X            1.00000  -0.00000   0.00000
           Y            0.00000   1.00000   0.00000
           Z            0.00000   0.00000   1.00000
 This molecule is a prolate symmetric top.
 Rotational symmetry number  1.
 Rotational temperature (Kelvin)      1.47784
 Rotational constant (GHZ):          30.793189
 Zero-point vibrational energy      32130.3 (Joules/Mol)
                                    7.67932 (Kcal/Mol)
 Warning -- explicit consideration of   3 degrees of freedom as
           vibrations may cause significant error
 Vibrational temperatures:    230.93   608.00   647.30  6242.54
          (Kelvin)

 Zero-point correction=                           0.012238 (Hartree/Particle)
 Thermal correction to Energy=                    0.015775
 Thermal correction to Enthalpy=                  0.016720
 Thermal correction to Gibbs Free Energy=        -0.008558
 Sum of electronic and zero-point Energies=           -100.922292
 Sum of electronic and thermal Energies=              -100.918754
 Sum of electronic and thermal Enthalpies=            -100.917810
 Sum of electronic and thermal Free Energies=         -100.943088

                     E (Thermal)             CV                S
                      KCal/Mol        Cal/Mol-Kelvin    Cal/Mol-Kelvin
 Total                    9.899              9.641             53.202
 Electronic               0.000              0.000              1.377
 Translational            0.889              2.981             35.068
 Rotational               0.592              1.987             12.533
 Vibrational              8.418              4.673              4.223
 Vibration     1          0.622              1.891              2.544
 Vibration     2          0.785              1.421              0.883
 Vibration     3          0.809              1.361              0.796

 Normal termination of Gaussian 16 at Fri Aug 22 17:59:47 2025.
