 Gaussian 16, Revision C.01,
 Gaussian 16:  ES64L-G16RevC.01  3-Jul-2019

 -----------------------------------------
 # sp b3lyp/6-311g** Force nosymm scf=(qc)
 -----------------------------------------

 -------------------
 Title Card Required
 -------------------
 Symbolic Z-matrix:
 Charge =  0 Multiplicity = 2

                          Input orientation:
 ---------------------------------------------------------------------
 Center     Atomic      Atomic             Coordinates (Angstroms)
 Number     Number       Type             X           Y           Z
 ---------------------------------------------------------------------
      1          1           0        0.000000    0.000000    0.000000
      2          1           0       -3.000000    0.000000    0.000000
      3          9           0        3.450000    0.000000    0.000000
 ---------------------------------------------------------------------

 SCF Done:  E(UB3LYP) =  -100.760094486     a.u. after   25 cycles

 Alpha  occ. eigenvalues --  -24.75316  -1.21284  -0.54438  -0.45707  -0.45707
 Alpha  occ. eigenvalues --   -0.32465
 Alpha virt. eigenvalues --   -0.08121   0.24934   0.35829   0.87774   0.91524
 Alpha virt. eigenvalues --    0.91524   1.01947   1.25072   1.25072   1.25797
 Alpha virt. eigenvalues --    1.43754   1.43754   1.43761   2.15704   2.39511

  Beta  occ. eigenvalues --  -24.72207  -1.12352  -0.42591  -0.42591  -0.32936
  Beta virt. eigenvalues --   -0.25451  -0.07519   0.24716   0.36758   0.93012
  Beta virt. eigenvalues --    0.93012   0.96889   1.05950   1.24523   1.24523
  Beta virt. eigenvalues --    1.25204   1.44682   1.44717   1.44717   2.16063

 Mulliken charges and spin densities:
               1          2
     1  H    0.012196  -0.978188
     2  H    0.000731   0.992476
     3  F   -0.012927   0.985712
 Sum of Mulliken charges =  -0.00000   1.00000

 Dipole moment (field-independent basis, Debye):
    X=             -0.2398    Y=             -0.0000    Z=              0.0000  Tot=              0.2398
 Quadrupole moment (field-independent basis, Debye-Ang):
   XX=             -7.3862   YY=             -7.6338   ZZ=             -7.6338
   XY=              0.0000   XZ=             -0.0000   YZ=              0.0000

  Exact polarizability:      27.580       0.000       2.029      -0.000       0.000       2.029
 Approx polarizability:      21.812       0.000       1.931      -0.000      -0.000       1.931

 ******    2 imaginary frequencies (negative Signs) ******

                      1                      2                      3
                      A                      A                      A
 Frequencies --   -364.3305              -136.2507               126.5133
 Red. masses --      1.0116                 1.1040                 1.0163
 Frc consts  --      0.0791                 0.0121                 0.0096
 IR Inten    --      9.1228                 4.6228                 0.1246

                      4
                      A
 Frequencies --    126.5133
 Red. masses --      1.0163
 Frc consts  --      0.0096
 IR Inten    --      0.1246

 - Thermochemistry -
 -------------------
 Temperature   298.150 Kelvin.  Pressure   1.00000 Atm.
 Atom     1 has atomic number  1 and mass   1.00783

 Molecular mass:    21.01405 amu.
 Principal axes and moments of inertia in atomic units:
                           1         2         3
     Eigenvalues --     0.00000 175.64775 175.64775
           X            1.00000  -0.00000   0.00000
           Y            0.00000   1.00000   0.00000
           Z            0.00000   0.00000   1.00000
 This molecule is a prolate symmetric top.
 Rotational symmetry number  1.
 Rotational temperature (Kelvin)      0.49311
 Rotational constant (GHZ):          10.274776
    2 imaginary frequencies ignored.
 Zero-point vibrational energy       1513.4 (Joules/Mol)
                                    0.36172 (Kcal/Mol)
 Warning -- explicit consideration of   2 degrees of freedom as
           vibrations may cause significant error
 Vibrational temperatures:    182.02   182.02
          (Kelvin)

 Zero-point correction=                           0.000576 (Hartree/Particle)
 Thermal correction to Energy=                    0.004307
 Thermal correction to Enthalpy=                  0.005251
 Thermal correction to Gibbs Free Energy=        -0.021906
 Sum of electronic and zero-point Energies=           -100.759518
 Sum of electronic and thermal Energies=              -100.755787
 Sum of electronic and thermal Enthalpies=            -100.754843
 Sum of electronic and thermal Free Energies=         -100.782000

                     E (Thermal)             CV                S
                      KCal/Mol        Cal/Mol-Kelvin    Cal/Mol-Kelvin
 Total                    2.703              8.821             57.157
 Electronic               0.000              0.000              1.377
 Translational            0.889              2.981             35.068
 Rotational               0.592              1.987             14.714
 Vibrational              1.222              3.853              5.997
 Vibration     1          0.611              1.927              2.998
 Vibration     2          0.611              1.927              2.998

 Normal termination of Gaussian 16 at Fri Aug 22 21:42:32 2025.
