 Gaussian 16, Revision C.01,
 Gaussian 16:  ES64L-G16RevC.01  3-Jul-2019

 -----------------------------------------
 # sp b3lyp/6-311g** Force nosymm scf=(qc)
 -----------------------------------------

 -------------------
 Title Card Required
 -------------------
 Symbolic Z-matrix:
 Charge =  0 Multiplicity = 2

                          Input orientation:
 ---------------------------------------------------------------------
 Center     Atomic      Atomic             Coordinates (Angstroms)
 Number     Number       Type             X           Y           Z
 ---------------------------------------------------------------------
      1          1           0        0.000000    0.000000    0.000000
      2          1           0       -2.400000    0.000000    0.000000
      3          9           0        1.250000    0.000000    0.000000
 ---------------------------------------------------------------------

 SCF Done:  E(UB3LYP) =  -100.914494032     a.u. after    6 cycles

 Alpha  occ. eigenvalues --  -24.64068  -1.11442  -0.46830  -0.37041  -0.37041
 Alpha  occ. eigenvalues --   -0.35624
 Alpha virt. eigenvalues --   -0.06256   0.24340   0.27754   0.93299   0.93299
 Alpha virt. eigenvalues --    1.01585   1.18907   1.21887   1.21887   1.32057
 Alpha virt. eigenvalues --    1.34567   1.34567   1.72563   2.12708   2.27857

  Beta  occ. eigenvalues --  -24.63996  -1.11259  -0.46522  -0.36975  -0.36975
  Beta virt. eigenvalues --   -0.12585  -0.03200   0.27615   0.35931   0.93293
  Beta virt. eigenvalues --    0.93293   1.01756   1.24672   1.34378   1.34378
  Beta virt. eigenvalues --    1.42621   1.42621   1.45959   1.72857   2.26742

 Mulliken charges and spin densities:
               1          2
     1  H    0.346477  -0.004336
     2  H    0.014153   0.982194
     3  F   -0.360629   0.022141
 Sum of Mulliken charges =  -0.00000   1.00000

 Dipole moment (field-independent basis, Debye):
    X=             -2.5172    Y=             -0.0000    Z=             -0.0000  Tot=              2.5172
 Quadrupole moment (field-independent basis, Debye-Ang):
   XX=             -8.6184   YY=             -7.1567   ZZ=             -7.1567
   XY=             -0.0000   XZ=             -0.0000   YZ=             -0.0000

  Exact polarizability:      14.538       0.000       2.329       0.000      -0.000       2.329
 Approx polarizability:      19.143      -0.000       2.283       0.000      -0.000       2.283

 ******    1 imaginary frequencies (negative Signs) ******

                      1                      2                      3
                      A                      A                      A
 Frequencies --   -353.3896               297.1325              1159.8708
 Red. masses --      1.0086                 1.1075                 1.0274
 Frc consts  --      0.0742                 0.0576                 0.8143
 IR Inten    --     79.0679                64.6274               121.7220

                      4
                      A
 Frequencies --   1159.8708
 Red. masses --      1.0274
 Frc consts  --      0.8143
 IR Inten    --    121.7220

 - Thermochemistry -
 -------------------
 Temperature   298.150 Kelvin.  Pressure   1.00000 Atm.
 Atom     1 has atomic number  1 and mass   1.00783

 Molecular mass:    21.01405 amu.
 Principal axes and moments of inertia in atomic units:
                           1         2         3
     Eigenvalues --     0.00000  49.42695  49.42695
           X            1.00000  -0.00000   0.00000
           Y            0.00000   1.00000   0.00000
           Z            0.00000   0.00000   1.00000
 This molecule is a prolate symmetric top.
 Rotational symmetry number  1.
 Rotational temperature (Kelvin)      1.75236
 Rotational constant (GHZ):          36.513303
    1 imaginary frequencies ignored.
 Zero-point vibrational energy      15652.4 (Joules/Mol)
                                    3.74101 (Kcal/Mol)
 Warning -- explicit consideration of   1 degrees of freedom as
           vibrations may cause significant error
 Vibrational temperatures:    427.51  1668.80  1668.80
          (Kelvin)

 Zero-point correction=                           0.005962 (Hartree/Particle)
 Thermal correction to Energy=                    0.008785
 Thermal correction to Enthalpy=                  0.009729
 Thermal correction to Gibbs Free Energy=        -0.014108
 Sum of electronic and zero-point Energies=           -100.908532
 Sum of electronic and thermal Energies=              -100.905709
 Sum of electronic and thermal Enthalpies=            -100.904765
 Sum of electronic and thermal Free Energies=         -100.928602

                     E (Thermal)             CV                S
                      KCal/Mol        Cal/Mol-Kelvin    Cal/Mol-Kelvin
 Total                    5.513              7.112             50.171
 Electronic               0.000              0.000              1.377
 Translational            0.889              2.981             35.068
 Rotational               0.592              1.987             12.195
 Vibrational              4.032              2.144              1.531
 Vibration     1          0.691              1.679              1.433

 Normal termination of Gaussian 16 at Fri Aug 22 16:12:52 2025.
