 Gaussian 16, Revision C.01,
 Gaussian 16:  ES64L-G16RevC.01  3-Jul-2019

 -----------------------------------------
 # sp b3lyp/6-311g** Force nosymm scf=(qc)
 -----------------------------------------

 -------------------
 Title Card Required
 -------------------
 Symbolic Z-matrix:
 Charge =  0 Multiplicity = 2

                          Input orientation:
 ---------------------------------------------------------------------
 Center     Atomic      Atomic             Coordinates (Angstroms)
 Number     Number       Type             X           Y           Z
 ---------------------------------------------------------------------
      1          1           0        0.000000    0.000000    0.000000
      2          1           0       -3.250000    0.000000    0.000000
      3          9           0        0.850000    0.000000    0.000000
 ---------------------------------------------------------------------

 SCF Done:  E(UB3LYP) =  -100.965538578     a.u. after    6 cycles

 Alpha  occ. eigenvalues --  -24.63848  -1.20897  -0.55007  -0.40129  -0.40129
 Alpha  occ. eigenvalues --   -0.33776
 Alpha virt. eigenvalues --    0.04297   0.24941   0.42506   0.94343   0.94343
 Alpha virt. eigenvalues --    0.97397   1.23276   1.23744   1.23744   1.30860
 Alpha virt. eigenvalues --    1.38364   1.38364   2.03248   2.14566   2.42920

  Beta  occ. eigenvalues --  -24.63846  -1.20892  -0.55002  -0.40127  -0.40127
  Beta virt. eigenvalues --   -0.05978   0.05105   0.39215   0.42471   0.94343
  Beta virt. eigenvalues --    0.94343   0.97386   1.29884   1.38364   1.38364
  Beta virt. eigenvalues --    1.50559   1.50687   1.50687   2.03298   2.42858

 Mulliken charges and spin densities:
               1          2
     1  H    0.283557   0.000957
     2  H    0.001377   0.998231
     3  F   -0.284934   0.000812
 Sum of Mulliken charges =   0.00000   1.00000

 Dipole moment (field-independent basis, Debye):
    X=             -1.8281    Y=              0.0000    Z=             -0.0000  Tot=              1.8281
 Quadrupole moment (field-independent basis, Debye-Ang):
   XX=             -7.7161   YY=             -6.8195   ZZ=             -6.8195
   XY=              0.0000   XZ=             -0.0000   YZ=             -0.0000

  Exact polarizability:       5.407      -0.000       2.440       0.000       0.000       2.440
 Approx polarizability:       6.088       0.000       2.420      -0.000       0.000       2.420

 ******    3 imaginary frequencies (negative Signs) ******

                      1                      2                      3
                      A                      A                      A
 Frequencies --  -1322.7634             -1322.7634               -49.1464
 Red. masses --      1.0383                 1.0383                 1.0532
 Frc consts  --      1.0704                 1.0704                 0.0015
 IR Inten    --    186.3793               186.3793                 0.0755

                      4
                      A
 Frequencies --   5311.2001
 Red. masses --      1.0583
 Frc consts  --     17.5895
 IR Inten    --    106.6699

 - Thermochemistry -
 -------------------
 Temperature   298.150 Kelvin.  Pressure   1.00000 Atm.
 Atom     1 has atomic number  1 and mass   1.00783

 Molecular mass:    21.01405 amu.
 Principal axes and moments of inertia in atomic units:
                           1         2         3
     Eigenvalues --     0.00000  58.87032  58.87032
           X            1.00000  -0.00000   0.00000
           Y            0.00000   1.00000   0.00000
           Z            0.00000   0.00000   1.00000
 This molecule is a prolate symmetric top.
 Rotational symmetry number  1.
 Rotational temperature (Kelvin)      1.47127
 Rotational constant (GHZ):          30.656217
    3 imaginary frequencies ignored.
 Zero-point vibrational energy      31768.0 (Joules/Mol)
                                    7.59274 (Kcal/Mol)
 Vibrational temperatures:   7641.63
          (Kelvin)

 Zero-point correction=                           0.012100 (Hartree/Particle)
 Thermal correction to Energy=                    0.014460
 Thermal correction to Enthalpy=                  0.015404
 Thermal correction to Gibbs Free Energy=        -0.007871
 Sum of electronic and zero-point Energies=           -100.953439
 Sum of electronic and thermal Energies=              -100.951078
 Sum of electronic and thermal Enthalpies=            -100.950134
 Sum of electronic and thermal Free Energies=         -100.973410

                     E (Thermal)             CV                S
                      KCal/Mol        Cal/Mol-Kelvin    Cal/Mol-Kelvin
 Total                    9.074              4.968             48.988
 Electronic               0.000              0.000              1.377
 Translational            0.889              2.981             35.068
 Rotational               0.592              1.987             12.542
 Vibrational              7.593              0.000              0.000

 Normal termination of Gaussian 16 at Fri Aug 22 15:54:16 2025.
