 Gaussian 16, Revision C.01,
 Gaussian 16:  ES64L-G16RevC.01  3-Jul-2019

 -----------------------------------------
 # sp b3lyp/6-311g** Force nosymm scf=(qc)
 -----------------------------------------

 -------------------
 Title Card Required
 -------------------
 Symbolic Z-matrix:
 Charge =  0 Multiplicity = 2

                          Input orientation:
 ---------------------------------------------------------------------
 Center     Atomic      Atomic             Coordinates (Angstroms)
 Number     Number       Type             X           Y           Z
 ---------------------------------------------------------------------
      1          1           0        0.000000    0.000000    0.000000
      2          1           0       -1.600000    0.000000    0.000000
      3          9           0        1.950000    0.000000    0.000000
 ---------------------------------------------------------------------

 SCF Done:  E(UB3LYP) =  -100.827341687     a.u. after   15 cycles

 Alpha  occ. eigenvalues --  -24.68758  -1.15136  -0.48205  -0.40235  -0.40235
 Alpha  occ. eigenvalues --   -0.37845
 Alpha virt. eigenvalues --   -0.11396   0.22578   0.30674   0.85281   0.94282
 Alpha virt. eigenvalues --    0.94282   1.02983   1.18017   1.18017   1.29930
 Alpha virt. eigenvalues --    1.36608   1.36608   1.77318   2.17339   2.40506

  Beta  occ. eigenvalues --  -24.66311  -1.08284  -0.37821  -0.37821  -0.37663
  Beta virt. eigenvalues --   -0.22849  -0.09717   0.25029   0.30407   0.88780
  Beta virt. eigenvalues --    0.95105   0.95105   1.07188   1.20561   1.20561
  Beta virt. eigenvalues --    1.35032   1.37312   1.37312   1.78733   2.18077

 Mulliken charges and spin densities:
               1          2
     1  H    0.111184  -0.430192
     2  H    0.063779   0.662169
     3  F   -0.174963   0.768022
 Sum of Mulliken charges =  -0.00000   1.00000

 Dipole moment (field-independent basis, Debye):
    X=             -2.1787    Y=             -0.0000    Z=             -0.0000  Tot=              2.1787
 Quadrupole moment (field-independent basis, Debye-Ang):
   XX=             -7.9967   YY=             -7.5214   ZZ=             -7.5214
   XY=             -0.0000   XZ=             -0.0000   YZ=             -0.0000

  Exact polarizability:      51.951      -0.000       2.110      -0.000       0.000       2.110
 Approx polarizability:      75.721       0.000       2.048       0.000       0.000       2.048

 ******    2 imaginary frequencies (negative Signs) ******

                      1                      2                      3
                      A                      A                      A
 Frequencies --  -2143.4077              -544.5131               967.9221
 Red. masses --      1.0131                 1.1022                 1.0157
 Frc consts  --      2.7422                 0.1925                 0.5607
 IR Inten    --    526.7943                19.0503                 4.4716

                      4
                      A
 Frequencies --    967.9221
 Red. masses --      1.0157
 Frc consts  --      0.5607
 IR Inten    --      4.4716

 - Thermochemistry -
 -------------------
 Temperature   298.150 Kelvin.  Pressure   1.00000 Atm.
 Atom     1 has atomic number  1 and mass   1.00783

 Molecular mass:    21.01405 amu.
 Principal axes and moments of inertia in atomic units:
                           1         2         3
     Eigenvalues --     0.00000  53.82038  53.82038
           X            1.00000  -0.00000   0.00000
           Y            0.00000   1.00000   0.00000
           Z            0.00000   0.00000   1.00000
 This molecule is a prolate symmetric top.
 Rotational symmetry number  1.
 Rotational temperature (Kelvin)      1.60931
 Rotational constant (GHZ):          33.532676
    2 imaginary frequencies ignored.
 Zero-point vibrational energy      11578.9 (Joules/Mol)
                                    2.76743 (Kcal/Mol)
 Vibrational temperatures:   1392.62  1392.62
          (Kelvin)

 Zero-point correction=                           0.004410 (Hartree/Particle)
 Thermal correction to Energy=                    0.006854
 Thermal correction to Enthalpy=                  0.007798
 Thermal correction to Gibbs Free Energy=        -0.015494
 Sum of electronic and zero-point Energies=           -100.822932
 Sum of electronic and thermal Energies=              -100.820488
 Sum of electronic and thermal Enthalpies=            -100.819543
 Sum of electronic and thermal Free Energies=         -100.842836

                     E (Thermal)             CV                S
                      KCal/Mol        Cal/Mol-Kelvin    Cal/Mol-Kelvin
 Total                    4.301              5.795             49.022
 Electronic               0.000              0.000              1.377
 Translational            0.889              2.981             35.068
 Rotational               0.592              1.987             12.364
 Vibrational              2.820              0.827              0.213

 Normal termination of Gaussian 16 at Fri Aug 22 16:52:57 2025.
