 Gaussian 16, Revision C.01,
 Gaussian 16:  ES64L-G16RevC.01  3-Jul-2019

 -----------------------------------------
 # sp b3lyp/6-311g** Force nosymm scf=(qc)
 -----------------------------------------

 -------------------
 Title Card Required
 -------------------
 Symbolic Z-matrix:
 Charge =  0 Multiplicity = 2

                          Input orientation:
 ---------------------------------------------------------------------
 Center     Atomic      Atomic             Coordinates (Angstroms)
 Number     Number       Type             X           Y           Z
 ---------------------------------------------------------------------
      1          1           0        0.000000    0.000000    0.000000
      2          1           0       -3.200000    0.000000    0.000000
      3          9           0        2.800000    0.000000    0.000000
 ---------------------------------------------------------------------

 SCF Done:  E(UB3LYP) =  -100.763195382     a.u. after   20 cycles

 Alpha  occ. eigenvalues --  -24.73289  -1.19406  -0.52405  -0.44008  -0.44008
 Alpha  occ. eigenvalues --   -0.32779
 Alpha virt. eigenvalues --   -0.09295   0.24175   0.35366   0.89940   0.92748
 Alpha virt. eigenvalues --    0.92748   1.05116   1.24744   1.24744   1.25218
 Alpha virt. eigenvalues --    1.42400   1.42400   1.43175   2.15104   2.38156

  Beta  occ. eigenvalues --  -24.70320  -1.10913  -0.41039  -0.41039  -0.34296
  Beta virt. eigenvalues --   -0.24312  -0.07226   0.24382   0.37285   0.94188
  Beta virt. eigenvalues --    0.94188   0.98210   1.08578   1.23039   1.23039
  Beta virt. eigenvalues --    1.24778   1.45095   1.45304   1.45304   2.14948

 Mulliken charges and spin densities:
               1          2
     1  H    0.052741  -0.935837
     2  H    0.001304   0.995615
     3  F   -0.054045   0.940222
 Sum of Mulliken charges =  -0.00000   1.00000

 Dipole moment (field-independent basis, Debye):
    X=             -0.7957    Y=             -0.0000    Z=             -0.0000  Tot=              0.7957
 Quadrupole moment (field-independent basis, Debye-Ang):
   XX=             -8.6539   YY=             -7.6044   ZZ=             -7.6044
   XY=             -0.0000   XZ=             -0.0000   YZ=             -0.0000

  Exact polarizability:      33.891      -0.000       2.022      -0.000      -0.000       2.022
 Approx polarizability:      37.126      -0.000       1.922      -0.000       0.000       1.922

 ******    2 imaginary frequencies (negative Signs) ******

                      1                      2                      3
                      A                      A                      A
 Frequencies --   -480.3719              -165.1913               177.9383
 Red. masses --      1.0427                 1.0692                 1.0196
 Frc consts  --      0.1418                 0.0172                 0.0190
 IR Inten    --     53.2085                 1.8761                 2.5684

                      4
                      A
 Frequencies --    177.9383
 Red. masses --      1.0196
 Frc consts  --      0.0190
 IR Inten    --      2.5684

 - Thermochemistry -
 -------------------
 Temperature   298.150 Kelvin.  Pressure   1.00000 Atm.
 Atom     1 has atomic number  1 and mass   1.00783

 Molecular mass:    21.01405 amu.
 Principal axes and moments of inertia in atomic units:
                           1         2         3
     Eigenvalues --     0.00000 144.41385 144.41385
           X            1.00000  -0.00000   0.00000
           Y            0.00000   1.00000   0.00000
           Z            0.00000   0.00000   1.00000
 This molecule is a prolate symmetric top.
 Rotational symmetry number  1.
 Rotational temperature (Kelvin)      0.59976
 Rotational constant (GHZ):          12.497009
    2 imaginary frequencies ignored.
 Zero-point vibrational energy       2128.6 (Joules/Mol)
                                    0.50875 (Kcal/Mol)
 Warning -- explicit consideration of   2 degrees of freedom as
           vibrations may cause significant error
 Vibrational temperatures:    256.01   256.01
          (Kelvin)

 Zero-point correction=                           0.000811 (Hartree/Particle)
 Thermal correction to Energy=                    0.004363
 Thermal correction to Enthalpy=                  0.005308
 Thermal correction to Gibbs Free Energy=        -0.021048
 Sum of electronic and zero-point Energies=           -100.762385
 Sum of electronic and thermal Energies=              -100.758832
 Sum of electronic and thermal Enthalpies=            -100.757888
 Sum of electronic and thermal Free Energies=         -100.784244

                     E (Thermal)             CV                S
                      KCal/Mol        Cal/Mol-Kelvin    Cal/Mol-Kelvin
 Total                    2.738              8.707             55.471
 Electronic               0.000              0.000              1.377
 Translational            0.889              2.981             35.068
 Rotational               0.592              1.987             14.325
 Vibrational              1.257              3.739              4.700
 Vibration     1          0.628              1.869              2.350
 Vibration     2          0.628              1.869              2.350

 Normal termination of Gaussian 16 at Fri Aug 22 18:44:18 2025.
