 Gaussian 16, Revision C.01,
 Gaussian 16:  ES64L-G16RevC.01  3-Jul-2019

 -----------------------------------------
 # sp b3lyp/6-311g** Force nosymm scf=(qc)
 -----------------------------------------

 -------------------
 Title Card Required
 -------------------
 Symbolic Z-matrix:
 Charge =  0 Multiplicity = 2

                          Input orientation:
 ---------------------------------------------------------------------
 Center     Atomic      Atomic             Coordinates (Angstroms)
 Number     Number       Type             X           Y           Z
 ---------------------------------------------------------------------
      1          1           0        0.000000    0.000000    0.000000
      2          1           0       -2.450000    0.000000    0.000000
      3          9           0        2.350000    0.000000    0.000000
 ---------------------------------------------------------------------

 SCF Done:  E(UB3LYP) =  -100.775423259     a.u. after   15 cycles

 Alpha  occ. eigenvalues --  -24.70781  -1.17039  -0.49863  -0.41896  -0.41896
 Alpha  occ. eigenvalues --   -0.34178
 Alpha virt. eigenvalues --   -0.12571   0.24633   0.32712   0.89560   0.94115
 Alpha virt. eigenvalues --    0.94115   1.06665   1.23497   1.23497   1.26844
 Alpha virt. eigenvalues --    1.36902   1.36902   1.45833   2.14184   2.31854

  Beta  occ. eigenvalues --  -24.68033  -1.09244  -0.39162  -0.39162  -0.35905
  Beta virt. eigenvalues --   -0.22759  -0.09919   0.25828   0.34422   0.95099
  Beta virt. eigenvalues --    0.95387   0.95387   1.09161   1.22026   1.22026
  Beta virt. eigenvalues --    1.35378   1.41057   1.41057   1.43128   2.13553

 Mulliken charges and spin densities:
               1          2
     1  H    0.098719  -0.833224
     2  H    0.014488   0.966013
     3  F   -0.113207   0.867210
 Sum of Mulliken charges =  -0.00000   1.00000

 Dipole moment (field-independent basis, Debye):
    X=             -1.5148    Y=             -0.0000    Z=             -0.0000  Tot=              1.5148
 Quadrupole moment (field-independent basis, Debye-Ang):
   XX=             -8.9966   YY=             -7.5944   ZZ=             -7.5944
   XY=             -0.0000   XZ=             -0.0000   YZ=              0.0000

  Exact polarizability:      43.573      -0.000       2.021      -0.000       0.000       2.021
 Approx polarizability:      48.359       0.000       1.921       0.000       0.000       1.921

 ******    2 imaginary frequencies (negative Signs) ******

                      1                      2                      3
                      A                      A                      A
 Frequencies --   -917.1898              -379.2782               371.5575
 Red. masses --      1.0243                 1.0892                 1.0185
 Frc consts  --      0.5077                 0.0923                 0.0828
 IR Inten    --     63.3009                26.3105                 7.8676

                      4
                      A
 Frequencies --    371.5575
 Red. masses --      1.0185
 Frc consts  --      0.0828
 IR Inten    --      7.8676

 - Thermochemistry -
 -------------------
 Temperature   298.150 Kelvin.  Pressure   1.00000 Atm.
 Atom     1 has atomic number  1 and mass   1.00783

 Molecular mass:    21.01405 amu.
 Principal axes and moments of inertia in atomic units:
                           1         2         3
     Eigenvalues --     0.00000  93.97258  93.97258
           X            1.00000  -0.00000   0.00000
           Y            0.00000   1.00000   0.00000
           Z            0.00000   0.00000   1.00000
 This molecule is a prolate symmetric top.
 Rotational symmetry number  1.
 Rotational temperature (Kelvin)      0.92169
 Rotational constant (GHZ):          19.204976
    2 imaginary frequencies ignored.
 Zero-point vibrational energy       4444.8 (Joules/Mol)
                                    1.06234 (Kcal/Mol)
 Warning -- explicit consideration of   2 degrees of freedom as
           vibrations may cause significant error
 Vibrational temperatures:    534.59   534.59
          (Kelvin)

 Zero-point correction=                           0.001693 (Hartree/Particle)
 Thermal correction to Energy=                    0.004730
 Thermal correction to Enthalpy=                  0.005674
 Thermal correction to Gibbs Free Energy=        -0.019063
 Sum of electronic and zero-point Energies=           -100.773730
 Sum of electronic and thermal Energies=              -100.770694
 Sum of electronic and thermal Enthalpies=            -100.769750
 Sum of electronic and thermal Free Energies=         -100.794487

                     E (Thermal)             CV                S
                      KCal/Mol        Cal/Mol-Kelvin    Cal/Mol-Kelvin
 Total                    2.968              8.029             52.064
 Electronic               0.000              0.000              1.377
 Translational            0.889              2.981             35.068
 Rotational               0.592              1.987             13.472
 Vibrational              1.487              3.061              2.147
 Vibration     1          0.743              1.531              1.073
 Vibration     2          0.743              1.531              1.073

 Normal termination of Gaussian 16 at Fri Aug 22 17:26:45 2025.
