 Gaussian 16, Revision C.01,
 Gaussian 16:  ES64L-G16RevC.01  3-Jul-2019

 -----------------------------------------
 # sp b3lyp/6-311g** Force nosymm scf=(qc)
 -----------------------------------------

 -------------------
 Title Card Required
 -------------------
 Symbolic Z-matrix:
 Charge =  0 Multiplicity = 2

                          Input orientation:
 ---------------------------------------------------------------------
 Center     Atomic      Atomic             Coordinates (Angstroms)
 Number     Number       Type             X           Y           Z
 ---------------------------------------------------------------------
      1          1           0        0.000000    0.000000    0.000000
      2          1           0       -0.500000    0.000000    0.000000
      3          9           0        0.800000    0.000000    0.000000
 ---------------------------------------------------------------------

 SCF Done:  E(UB3LYP) =  -100.707483562     a.u. after    6 cycles

 Alpha  occ. eigenvalues --  -24.68886  -1.32713  -0.72644  -0.45752  -0.45752
 Alpha  occ. eigenvalues --   -0.28307
 Alpha virt. eigenvalues --    0.15818   0.17572   0.78809   0.85220   0.85220
 Alpha virt. eigenvalues --    0.91481   1.12531   1.12531   1.47879   1.66783
 Alpha virt. eigenvalues --    1.95122   1.95816   1.95816   3.20989   3.75228

  Beta  occ. eigenvalues --  -24.67389  -1.28582  -0.66488  -0.44431  -0.44431
  Beta virt. eigenvalues --   -0.10655   0.17948   0.19699   0.83053   0.87129
  Beta virt. eigenvalues --    0.87129   0.94907   1.16757   1.16757   1.49495
  Beta virt. eigenvalues --    1.71489   2.00660   2.00660   2.01341   3.26866

 Mulliken charges and spin densities:
               1          2
     1  H    0.281069  -0.068853
     2  H   -0.157956   0.779160
     3  F   -0.123113   0.289692
 Sum of Mulliken charges =   0.00000   1.00000

 Dipole moment (field-independent basis, Debye):
    X=             -0.6985    Y=             -0.0000    Z=             -0.0000  Tot=              0.6985
 Quadrupole moment (field-independent basis, Debye-Ang):
   XX=             -7.4203   YY=             -6.3711   ZZ=             -6.3711
   XY=             -0.0000   XZ=             -0.0000   YZ=              0.0000

  Exact polarizability:       9.684       0.000       2.455       0.000      -0.000       2.455
 Approx polarizability:      10.215      -0.000       2.555       0.000      -0.000       2.555

 ******    2 imaginary frequencies (negative Signs) ******

                      1                      2                      3
                      A                      A                      A
 Frequencies --  -5814.4373             -5814.4373              4383.0286
 Red. masses --      1.0133                 1.0133                 1.1065
 Frc consts  --     20.1829                20.1829                12.5244
 IR Inten    --     68.7494                68.7494               314.3376

                      4
                      A
 Frequencies --  10427.9441
 Red. masses --      1.0095
 Frc consts  --     64.6764
 IR Inten    --      1.6974

 - Thermochemistry -
 -------------------
 Temperature   298.150 Kelvin.  Pressure   1.00000 Atm.
 Atom     1 has atomic number  1 and mass   1.00783

 Molecular mass:    21.01405 amu.
 Principal axes and moments of inertia in atomic units:
                           1         2         3
     Eigenvalues --     0.00000   7.62449   7.62449
           X            1.00000  -0.00000   0.00000
           Y            0.00000   1.00000   0.00000
           Z            0.00000   0.00000   1.00000
 This molecule is a prolate symmetric top.
 Rotational symmetry number  1.
 Rotational temperature (Kelvin)     11.35996
 Rotational constant (GHZ):         236.703097
    2 imaginary frequencies ignored.
 Zero-point vibrational energy      88589.3 (Joules/Mol)
                                   21.17335 (Kcal/Mol)
 Vibrational temperatures:   6306.20 15003.49
          (Kelvin)

 Zero-point correction=                           0.033742 (Hartree/Particle)
 Thermal correction to Energy=                    0.036102
 Thermal correction to Enthalpy=                  0.037047
 Thermal correction to Gibbs Free Energy=         0.015701
 Sum of electronic and zero-point Energies=           -100.673742
 Sum of electronic and thermal Energies=              -100.671381
 Sum of electronic and thermal Enthalpies=            -100.670437
 Sum of electronic and thermal Free Energies=         -100.691783

                     E (Thermal)             CV                S
                      KCal/Mol        Cal/Mol-Kelvin    Cal/Mol-Kelvin
 Total                   22.655              4.968             44.926
 Electronic               0.000              0.000              1.377
 Translational            0.889              2.981             35.068
 Rotational               0.592              1.987              8.480
 Vibrational             21.173              0.000              0.000

 Normal termination of Gaussian 16 at Fri Aug 22 15:50:03 2025.
