 Gaussian 16, Revision C.01,
 Gaussian 16:  ES64L-G16RevC.01  3-Jul-2019

 -----------------------------------------
 # sp b3lyp/6-311g** Force nosymm scf=(qc)
 -----------------------------------------

 -------------------
 Title Card Required
 -------------------
 Symbolic Z-matrix:
 Charge =  0 Multiplicity = 2

                          Input orientation:
 ---------------------------------------------------------------------
 Center     Atomic      Atomic             Coordinates (Angstroms)
 Number     Number       Type             X           Y           Z
 ---------------------------------------------------------------------
      1          1           0        0.000000    0.000000    0.000000
      2          1           0       -1.600000    0.000000    0.000000
      3          9           0        2.550000    0.000000    0.000000
 ---------------------------------------------------------------------

 SCF Done:  E(UB3LYP) =  -100.810411946     a.u. after   21 cycles

 Alpha  occ. eigenvalues --  -24.73151  -1.19278  -0.52308  -0.43901  -0.43901
 Alpha  occ. eigenvalues --   -0.35494
 Alpha virt. eigenvalues --   -0.11541   0.24080   0.30862   0.89360   0.92763
 Alpha virt. eigenvalues --    0.92763   1.03263   1.12406   1.20141   1.20141
 Alpha virt. eigenvalues --    1.37516   1.37516   1.72499   2.17209   2.43537

  Beta  occ. eigenvalues --  -24.70216  -1.10894  -0.40969  -0.40969  -0.35098
  Beta virt. eigenvalues --   -0.24644  -0.10911   0.25447   0.30685   0.94171
  Beta virt. eigenvalues --    0.94171   0.96054   1.05801   1.15969   1.20705
  Beta virt. eigenvalues --    1.20705   1.38027   1.38027   1.73149   2.18231

 Mulliken charges and spin densities:
               1          2
     1  H    0.023552  -0.460912
     2  H    0.036877   0.532610
     3  F   -0.060429   0.928302
 Sum of Mulliken charges =  -0.00000   1.00000

 Dipole moment (field-independent basis, Debye):
    X=             -1.0647    Y=              0.0000    Z=             -0.0000  Tot=              1.0647
 Quadrupole moment (field-independent basis, Debye-Ang):
   XX=             -7.1274   YY=             -7.6913   ZZ=             -7.6913
   XY=             -0.0000   XZ=              0.0000   YZ=              0.0000

  Exact polarizability:      61.429      -0.000       2.034       0.000      -0.000       2.034
 Approx polarizability:      80.926       0.000       1.998      -0.000      -0.000       1.998

 ******    2 imaginary frequencies (negative Signs) ******

                      1                      2                      3
                      A                      A                      A
 Frequencies --  -2047.7452              -324.0486              1009.6156
 Red. masses --      1.0083                 1.1080                 1.0133
 Frc consts  --      2.4911                 0.0685                 0.6085
 IR Inten    --    378.9764                39.7561                 0.0423

                      4
                      A
 Frequencies --   1009.6156
 Red. masses --      1.0133
 Frc consts  --      0.6085
 IR Inten    --      0.0423

 - Thermochemistry -
 -------------------
 Temperature   298.150 Kelvin.  Pressure   1.00000 Atm.
 Atom     1 has atomic number  1 and mass   1.00783

 Molecular mass:    21.01405 amu.
 Principal axes and moments of inertia in atomic units:
                           1         2         3
     Eigenvalues --     0.00000  77.63815  77.63815
           X            1.00000  -0.00000   0.00000
           Y            0.00000   1.00000   0.00000
           Z            0.00000   0.00000   1.00000
 This molecule is a prolate symmetric top.
 Rotational symmetry number  1.
 Rotational temperature (Kelvin)      1.11561
 Rotational constant (GHZ):          23.245545
    2 imaginary frequencies ignored.
 Zero-point vibrational energy      12077.7 (Joules/Mol)
                                    2.88664 (Kcal/Mol)
 Vibrational temperatures:   1452.61  1452.61
          (Kelvin)

 Zero-point correction=                           0.004600 (Hartree/Particle)
 Thermal correction to Energy=                    0.007032
 Thermal correction to Enthalpy=                  0.007976
 Thermal correction to Gibbs Free Energy=        -0.015647
 Sum of electronic and zero-point Energies=           -100.805812
 Sum of electronic and thermal Energies=              -100.803380
 Sum of electronic and thermal Enthalpies=            -100.802436
 Sum of electronic and thermal Free Energies=         -100.826059

                     E (Thermal)             CV                S
                      KCal/Mol        Cal/Mol-Kelvin    Cal/Mol-Kelvin
 Total                    4.412              5.702             49.717
 Electronic               0.000              0.000              1.377
 Translational            0.889              2.981             35.068
 Rotational               0.592              1.987             13.092
 Vibrational              2.931              0.734              0.180

 Normal termination of Gaussian 16 at Fri Aug 22 17:53:23 2025.
