 Gaussian 16, Revision C.01,
 Gaussian 16:  ES64L-G16RevC.01  3-Jul-2019

 -----------------------------------------
 # sp b3lyp/6-311g** Force nosymm scf=(qc)
 -----------------------------------------

 -------------------
 Title Card Required
 -------------------
 Symbolic Z-matrix:
 Charge =  0 Multiplicity = 2

                          Input orientation:
 ---------------------------------------------------------------------
 Center     Atomic      Atomic             Coordinates (Angstroms)
 Number     Number       Type             X           Y           Z
 ---------------------------------------------------------------------
      1          1           0        0.000000    0.000000    0.000000
      2          1           0       -2.100000    0.000000    0.000000
      3          9           0        3.750000    0.000000    0.000000
 ---------------------------------------------------------------------

 SCF Done:  E(UB3LYP) =  -100.770526355     a.u. after   66 cycles

 Alpha  occ. eigenvalues --  -24.75824  -1.21756  -0.54948  -0.46140  -0.46140
 Alpha  occ. eigenvalues --   -0.32870
 Alpha virt. eigenvalues --   -0.10595   0.25984   0.33024   0.86919   0.91195
 Alpha virt. eigenvalues --    0.91195   1.01253   1.20795   1.25057   1.25057
 Alpha virt. eigenvalues --    1.38757   1.38757   1.47913   2.13533   2.35682

  Beta  occ. eigenvalues --  -24.72685  -1.12733  -0.42994  -0.42994  -0.32954
  Beta virt. eigenvalues --   -0.25738  -0.10409   0.25838   0.33340   0.92691
  Beta virt. eigenvalues --    0.92691   0.96225   1.05357   1.20748   1.24960
  Beta virt. eigenvalues --    1.24960   1.39013   1.39013   1.48100   2.13830

 Mulliken charges and spin densities:
               1          2
     1  H    0.001117  -0.891330
     2  H    0.003122   0.896289
     3  F   -0.004240   0.995041
 Sum of Mulliken charges =   0.00000   1.00000

 Dipole moment (field-independent basis, Debye):
    X=             -0.1124    Y=             -0.0000    Z=              0.0000  Tot=              0.1124
 Quadrupole moment (field-independent basis, Debye-Ang):
   XX=             -6.5064   YY=             -7.7136   ZZ=             -7.7136
   XY=             -0.0000   XZ=              0.0000   YZ=             -0.0000

  Exact polarizability:      32.963      -0.000       2.010       0.000      -0.000       2.010
 Approx polarizability:      28.286      -0.000       1.934       0.000      -0.000       1.934

 ******    2 imaginary frequencies (negative Signs) ******

                      1                      2                      3
                      A                      A                      A
 Frequencies --  -1178.0451               -97.6759               467.9733
 Red. masses --      1.0078                 1.1085                 1.0124
 Frc consts  --      0.8241                 0.0062                 0.1306
 IR Inten    --      2.5479                 2.2165                 0.0000

                      4
                      A
 Frequencies --    467.9733
 Red. masses --      1.0124
 Frc consts  --      0.1306
 IR Inten    --      0.0000

 - Thermochemistry -
 -------------------
 Temperature   298.150 Kelvin.  Pressure   1.00000 Atm.
 Atom     1 has atomic number  1 and mass   1.00783

 Molecular mass:    21.01405 amu.
 Principal axes and moments of inertia in atomic units:
                           1         2         3
     Eigenvalues --     0.00000 157.87067 157.87067
           X            1.00000  -0.00000   0.00000
           Y            0.00000   1.00000   0.00000
           Z            0.00000   0.00000   1.00000
 This molecule is a prolate symmetric top.
 Rotational symmetry number  1.
 Rotational temperature (Kelvin)      0.54864
 Rotational constant (GHZ):          11.431770
    2 imaginary frequencies ignored.
 Zero-point vibrational energy       5598.2 (Joules/Mol)
                                    1.33800 (Kcal/Mol)
 Warning -- explicit consideration of   2 degrees of freedom as
           vibrations may cause significant error
 Vibrational temperatures:    673.31   673.31
          (Kelvin)

 Zero-point correction=                           0.002132 (Hartree/Particle)
 Thermal correction to Energy=                    0.004991
 Thermal correction to Enthalpy=                  0.005935
 Thermal correction to Gibbs Free Energy=        -0.018979
 Sum of electronic and zero-point Energies=           -100.768394
 Sum of electronic and thermal Energies=              -100.765536
 Sum of electronic and thermal Enthalpies=            -100.764592
 Sum of electronic and thermal Free Energies=         -100.789505

                     E (Thermal)             CV                S
                      KCal/Mol        Cal/Mol-Kelvin    Cal/Mol-Kelvin
 Total                    3.132              7.610             52.434
 Electronic               0.000              0.000              1.377
 Translational            0.889              2.981             35.068
 Rotational               0.592              1.987             14.502
 Vibrational              1.650              2.642              1.486
 Vibration     1          0.825              1.321              0.743
 Vibration     2          0.825              1.321              0.743

 Normal termination of Gaussian 16 at Sat Aug 23 00:25:13 2025.
