 Gaussian 16, Revision C.01,
 Gaussian 16:  ES64L-G16RevC.01  3-Jul-2019

 -----------------------------------------
 # sp b3lyp/6-311g** Force nosymm scf=(qc)
 -----------------------------------------

 -------------------
 Title Card Required
 -------------------
 Symbolic Z-matrix:
 Charge =  0 Multiplicity = 2

                          Input orientation:
 ---------------------------------------------------------------------
 Center     Atomic      Atomic             Coordinates (Angstroms)
 Number     Number       Type             X           Y           Z
 ---------------------------------------------------------------------
      1          1           0        0.000000    0.000000    0.000000
      2          1           0       -2.600000    0.000000    0.000000
      3          9           0        2.550000    0.000000    0.000000
 ---------------------------------------------------------------------

 SCF Done:  E(UB3LYP) =  -100.769239679     a.u. after   17 cycles

 Alpha  occ. eigenvalues --  -24.72041  -1.18233  -0.51144  -0.42957  -0.42957
 Alpha  occ. eigenvalues --   -0.33559
 Alpha virt. eigenvalues --   -0.11514   0.24769   0.33453   0.90143   0.93464
 Alpha virt. eigenvalues --    0.93464   1.06441   1.24058   1.24058   1.26448
 Alpha virt. eigenvalues --    1.38696   1.38696   1.42627   2.15056   2.34356

  Beta  occ. eigenvalues --  -24.69173  -1.10062  -0.40096  -0.40096  -0.35134
  Beta virt. eigenvalues --   -0.23561  -0.09160   0.25592   0.35119   0.94848
  Beta virt. eigenvalues --    0.94848   0.97370   1.09390   1.22407   1.22407
  Beta virt. eigenvalues --    1.28924   1.42351   1.42351   1.43552   2.14718

 Mulliken charges and spin densities:
               1          2
     1  H    0.074045  -0.884594
     2  H    0.008147   0.977935
     3  F   -0.082192   0.906659
 Sum of Mulliken charges =  -0.00000   1.00000

 Dipole moment (field-independent basis, Debye):
    X=             -1.1692    Y=             -0.0000    Z=              0.0000  Tot=              1.1692
 Quadrupole moment (field-independent basis, Debye-Ang):
   XX=             -8.8323   YY=             -7.6097   ZZ=             -7.6097
   XY=             -0.0000   XZ=              0.0000   YZ=              0.0000

  Exact polarizability:      41.414      -0.000       2.016       0.000       0.000       2.016
 Approx polarizability:      45.026      -0.000       1.918       0.000      -0.000       1.918

 ******    2 imaginary frequencies (negative Signs) ******

                      1                      2                      3
                      A                      A                      A
 Frequencies --   -739.6474              -309.7751               291.0244
 Red. masses --      1.0236                 1.0900                 1.0182
 Frc consts  --      0.3299                 0.0616                 0.0508
 IR Inten    --     56.0058                18.3719                 4.6229

                      4
                      A
 Frequencies --    291.0244
 Red. masses --      1.0182
 Frc consts  --      0.0508
 IR Inten    --      4.6229

 - Thermochemistry -
 -------------------
 Temperature   298.150 Kelvin.  Pressure   1.00000 Atm.
 Atom     1 has atomic number  1 and mass   1.00783

 Molecular mass:    21.01405 amu.
 Principal axes and moments of inertia in atomic units:
                           1         2         3
     Eigenvalues --     0.00000 108.62339 108.62339
           X            1.00000  -0.00000   0.00000
           Y            0.00000   1.00000   0.00000
           Z            0.00000   0.00000   1.00000
 This molecule is a prolate symmetric top.
 Rotational symmetry number  1.
 Rotational temperature (Kelvin)      0.79738
 Rotational constant (GHZ):          16.614664
    2 imaginary frequencies ignored.
 Zero-point vibrational energy       3481.4 (Joules/Mol)
                                    0.83208 (Kcal/Mol)
 Warning -- explicit consideration of   2 degrees of freedom as
           vibrations may cause significant error
 Vibrational temperatures:    418.72   418.72
          (Kelvin)

 Zero-point correction=                           0.001326 (Hartree/Particle)
 Thermal correction to Energy=                    0.004549
 Thermal correction to Enthalpy=                  0.005494
 Thermal correction to Gibbs Free Energy=        -0.019755
 Sum of electronic and zero-point Energies=           -100.767914
 Sum of electronic and thermal Energies=              -100.764690
 Sum of electronic and thermal Enthalpies=            -100.763746
 Sum of electronic and thermal Free Energies=         -100.788995

                     E (Thermal)             CV                S
                      KCal/Mol        Cal/Mol-Kelvin    Cal/Mol-Kelvin
 Total                    2.855              8.349             53.141
 Electronic               0.000              0.000              1.377
 Translational            0.889              2.981             35.068
 Rotational               0.592              1.987             13.759
 Vibrational              1.374              3.381              2.936
 Vibration     1          0.687              1.690              1.468
 Vibration     2          0.687              1.690              1.468

 Normal termination of Gaussian 16 at Fri Aug 22 17:54:24 2025.
