 Gaussian 16, Revision C.01,
 Gaussian 16:  ES64L-G16RevC.01  3-Jul-2019

 -----------------------------------------
 # sp b3lyp/6-311g** Force nosymm scf=(qc)
 -----------------------------------------

 -------------------
 Title Card Required
 -------------------
 Symbolic Z-matrix:
 Charge =  0 Multiplicity = 2

                          Input orientation:
 ---------------------------------------------------------------------
 Center     Atomic      Atomic             Coordinates (Angstroms)
 Number     Number       Type             X           Y           Z
 ---------------------------------------------------------------------
      1          1           0        0.000000    0.000000    0.000000
      2          1           0       -3.500000    0.000000    0.000000
      3          9           0        1.750000    0.000000    0.000000
 ---------------------------------------------------------------------

 SCF Done:  E(UB3LYP) =  -100.810632842     a.u. after   17 cycles

 Alpha  occ. eigenvalues --  -24.66174  -1.12275  -0.44892  -0.37968  -0.37968
 Alpha  occ. eigenvalues --   -0.33781
 Alpha virt. eigenvalues --   -0.15142   0.21437   0.29661   0.94394   0.94668
 Alpha virt. eigenvalues --    0.94668   1.05931   1.23735   1.23735   1.23808
 Alpha virt. eigenvalues --    1.33360   1.33360   1.71564   2.13668   2.24791

  Beta  occ. eigenvalues --  -24.64455  -1.07563  -0.39775  -0.36295  -0.36295
  Beta virt. eigenvalues --   -0.18843  -0.07076   0.21914   0.37816   0.94533
  Beta virt. eigenvalues --    0.94533   0.94971   1.07776   1.24464   1.24464
  Beta virt. eigenvalues --    1.45389   1.45819   1.45819   1.67208   2.12320

 Mulliken charges and spin densities:
               1          2
     1  H    0.273287  -0.538947
     2  H    0.002022   0.997503
     3  F   -0.275309   0.541443
 Sum of Mulliken charges =   0.00000   1.00000

 Dipole moment (field-independent basis, Debye):
    X=             -2.3828    Y=              0.0000    Z=              0.0000  Tot=              2.3828
 Quadrupole moment (field-independent basis, Debye-Ang):
   XX=            -10.1735   YY=             -7.4242   ZZ=             -7.4242
   XY=              0.0000   XZ=              0.0000   YZ=              0.0000

  Exact polarizability:      22.760       0.000       2.108       0.000       0.000       2.108
 Approx polarizability:      36.033       0.000       2.002       0.000       0.000       2.002

 ******    2 imaginary frequencies (negative Signs) ******

                      1                      2                      3
                      A                      A                      A
 Frequencies --  -1624.3183              -113.4164               711.7484
 Red. masses --      1.0576                 1.0539                 1.0281
 Frc consts  --      1.6441                 0.0080                 0.3068
 IR Inten    --    126.2140                 0.3269                69.4213

                      4
                      A
 Frequencies --    711.7484
 Red. masses --      1.0281
 Frc consts  --      0.3068
 IR Inten    --     69.4213

 - Thermochemistry -
 -------------------
 Temperature   298.150 Kelvin.  Pressure   1.00000 Atm.
 Atom     1 has atomic number  1 and mass   1.00783

 Molecular mass:    21.01405 amu.
 Principal axes and moments of inertia in atomic units:
                           1         2         3
     Eigenvalues --     0.00000 101.76190 101.76190
           X            1.00000  -0.00000   0.00000
           Y            0.00000   1.00000   0.00000
           Z            0.00000   0.00000   1.00000
 This molecule is a prolate symmetric top.
 Rotational symmetry number  1.
 Rotational temperature (Kelvin)      0.85114
 Rotational constant (GHZ):          17.734941
    2 imaginary frequencies ignored.
 Zero-point vibrational energy       8514.4 (Joules/Mol)
                                    2.03499 (Kcal/Mol)
 Vibrational temperatures:   1024.05  1024.05
          (Kelvin)

 Zero-point correction=                           0.003243 (Hartree/Particle)
 Thermal correction to Energy=                    0.005819
 Thermal correction to Enthalpy=                  0.006764
 Thermal correction to Gibbs Free Energy=        -0.017307
 Sum of electronic and zero-point Energies=           -100.807390
 Sum of electronic and thermal Energies=              -100.804813
 Sum of electronic and thermal Enthalpies=            -100.803869
 Sum of electronic and thermal Free Energies=         -100.827939

                     E (Thermal)             CV                S
                      KCal/Mol        Cal/Mol-Kelvin    Cal/Mol-Kelvin
 Total                    3.652              6.582             50.660
 Electronic               0.000              0.000              1.377
 Translational            0.889              2.981             35.068
 Rotational               0.592              1.987             13.630
 Vibrational              2.171              1.614              0.585

 Normal termination of Gaussian 16 at Fri Aug 22 16:41:48 2025.
