 Gaussian 16, Revision C.01,
 Gaussian 16:  ES64L-G16RevC.01  3-Jul-2019

 -----------------------------------------
 # sp b3lyp/6-311g** Force nosymm scf=(qc)
 -----------------------------------------

 -------------------
 Title Card Required
 -------------------
 Symbolic Z-matrix:
 Charge =  0 Multiplicity = 2

                          Input orientation:
 ---------------------------------------------------------------------
 Center     Atomic      Atomic             Coordinates (Angstroms)
 Number     Number       Type             X           Y           Z
 ---------------------------------------------------------------------
      1          1           0        0.000000    0.000000    0.000000
      2          1           0       -3.650000    0.000000    0.000000
      3          9           0        0.650000    0.000000    0.000000
 ---------------------------------------------------------------------

 SCF Done:  E(UB3LYP) =  -100.800671419     a.u. after    6 cycles

 Alpha  occ. eigenvalues --  -24.62937  -1.31318  -0.59803  -0.42359  -0.42359
 Alpha  occ. eigenvalues --   -0.33285
 Alpha virt. eigenvalues --    0.06956   0.24770   0.55436   0.92879   0.92879
 Alpha virt. eigenvalues --    0.94691   1.24050   1.24223   1.24223   1.32211
 Alpha virt. eigenvalues --    1.46907   1.46907   1.95964   2.14511   3.09626

  Beta  occ. eigenvalues --  -24.62936  -1.31316  -0.59803  -0.42359  -0.42359
  Beta virt. eigenvalues --   -0.05171   0.07297   0.39273   0.55426   0.92879
  Beta virt. eigenvalues --    0.92879   0.94685   1.31830   1.46908   1.46908
  Beta virt. eigenvalues --    1.50404   1.50404   1.50542   1.95956   2.44853

 Mulliken charges and spin densities:
               1          2
     1  H    0.254850   0.000436
     2  H    0.000560   0.999340
     3  F   -0.255410   0.000225
 Sum of Mulliken charges =   0.00000   1.00000

 Dipole moment (field-independent basis, Debye):
    X=             -1.5117    Y=              0.0000    Z=             -0.0000  Tot=              1.5117
 Quadrupole moment (field-independent basis, Debye-Ang):
   XX=             -7.1412   YY=             -6.6080   ZZ=             -6.6080
   XY=              0.0000   XZ=             -0.0000   YZ=             -0.0000

  Exact polarizability:       3.587       0.000       2.443      -0.000       0.000       2.443
 Approx polarizability:       3.881      -0.000       2.423      -0.000       0.000       2.423

 ******    3 imaginary frequencies (negative Signs) ******

                      1                      2                      3
                      A                      A                      A
 Frequencies --  -4602.1708             -4602.1708               -34.8231
 Red. masses --      1.0434                 1.0434                 1.0532
 Frc consts  --     13.0207                13.0207                 0.0008
 IR Inten    --    227.0211               227.0211                 0.0171

                      4
                      A
 Frequencies --  10873.4345
 Red. masses --      1.0583
 Frc consts  --     73.7220
 IR Inten    --    102.2193

 - Thermochemistry -
 -------------------
 Temperature   298.150 Kelvin.  Pressure   1.00000 Atm.
 Atom     1 has atomic number  1 and mass   1.00783

 Molecular mass:    21.01405 amu.
 Principal axes and moments of inertia in atomic units:
                           1         2         3
     Eigenvalues --     0.00000  63.83695  63.83695
           X            1.00000  -0.00000   0.00000
           Y            0.00000   1.00000   0.00000
           Z            0.00000   0.00000   1.00000
 This molecule is a prolate symmetric top.
 Rotational symmetry number  1.
 Rotational temperature (Kelvin)      1.35680
 Rotational constant (GHZ):          28.271107
    3 imaginary frequencies ignored.
 Zero-point vibrational energy      65037.6 (Joules/Mol)
                                   15.54436 (Kcal/Mol)
 Vibrational temperatures:  15644.45
          (Kelvin)

 Zero-point correction=                           0.024772 (Hartree/Particle)
 Thermal correction to Energy=                    0.027132
 Thermal correction to Enthalpy=                  0.028076
 Thermal correction to Gibbs Free Energy=         0.004724
 Sum of electronic and zero-point Energies=           -100.775900
 Sum of electronic and thermal Energies=              -100.773539
 Sum of electronic and thermal Enthalpies=            -100.772595
 Sum of electronic and thermal Free Energies=         -100.795947

                     E (Thermal)             CV                S
                      KCal/Mol        Cal/Mol-Kelvin    Cal/Mol-Kelvin
 Total                   17.026              4.968             49.149
 Electronic               0.000              0.000              1.377
 Translational            0.889              2.981             35.068
 Rotational               0.592              1.987             12.703
 Vibrational             15.544              0.000              0.000

 Normal termination of Gaussian 16 at Fri Aug 22 15:45:07 2025.
