 Gaussian 16, Revision C.01,
 Gaussian 16:  ES64L-G16RevC.01  3-Jul-2019

 -----------------------------------------
 # sp b3lyp/6-311g** Force nosymm scf=(qc)
 -----------------------------------------

 -------------------
 Title Card Required
 -------------------
 Symbolic Z-matrix:
 Charge =  0 Multiplicity = 2

                          Input orientation:
 ---------------------------------------------------------------------
 Center     Atomic      Atomic             Coordinates (Angstroms)
 Number     Number       Type             X           Y           Z
 ---------------------------------------------------------------------
      1          1           0        0.000000    0.000000    0.000000
      2          1           0       -2.350000    0.000000    0.000000
      3          9           0        1.400000    0.000000    0.000000
 ---------------------------------------------------------------------

 SCF Done:  E(UB3LYP) =  -100.879062526     a.u. after    8 cycles

 Alpha  occ. eigenvalues --  -24.63964  -1.10073  -0.44599  -0.36383  -0.36383
 Alpha  occ. eigenvalues --   -0.35977
 Alpha virt. eigenvalues --   -0.10663   0.23702   0.26768   0.93486   0.93486
 Alpha virt. eigenvalues --    1.03301   1.14116   1.21476   1.21476   1.27575
 Alpha virt. eigenvalues --    1.33262   1.33262   1.73065   2.11938   2.23101

  Beta  occ. eigenvalues --  -24.63790  -1.09619  -0.43956  -0.36219  -0.36219
  Beta virt. eigenvalues --   -0.14895  -0.06270   0.26154   0.35189   0.93443
  Beta virt. eigenvalues --    0.93443   1.03724   1.16401   1.32647   1.32647
  Beta virt. eigenvalues --    1.41575   1.41575   1.44309   1.73175   2.20912

 Mulliken charges and spin densities:
               1          2
     1  H    0.340420  -0.028671
     2  H    0.021109   0.974352
     3  F   -0.361529   0.054319
 Sum of Mulliken charges =   0.00000   1.00000

 Dipole moment (field-independent basis, Debye):
    X=             -2.7571    Y=              0.0000    Z=             -0.0000  Tot=              2.7571
 Quadrupole moment (field-independent basis, Debye-Ang):
   XX=             -8.9779   YY=             -7.2580   ZZ=             -7.2580
   XY=              0.0000   XZ=             -0.0000   YZ=              0.0000

  Exact polarizability:      19.564       0.000       2.257      -0.000       0.000       2.257
 Approx polarizability:      28.520      -0.000       2.196       0.000       0.000       2.196

 ******    2 imaginary frequencies (negative Signs) ******

                      1                      2                      3
                      A                      A                      A
 Frequencies --  -1188.2493              -245.2888              1065.1726
 Red. masses --      1.0448                 1.0670                 1.0253
 Frc consts  --      0.8692                 0.0378                 0.6854
 IR Inten    --    157.1350                 1.2477               102.8800

                      4
                      A
 Frequencies --   1065.1726
 Red. masses --      1.0253
 Frc consts  --      0.6854
 IR Inten    --    102.8800

 - Thermochemistry -
 -------------------
 Temperature   298.150 Kelvin.  Pressure   1.00000 Atm.
 Atom     1 has atomic number  1 and mass   1.00783

 Molecular mass:    21.01405 amu.
 Principal axes and moments of inertia in atomic units:
                           1         2         3
     Eigenvalues --     0.00000  53.08715  53.08715
           X            1.00000  -0.00000   0.00000
           Y            0.00000   1.00000   0.00000
           Z            0.00000   0.00000   1.00000
 This molecule is a prolate symmetric top.
 Rotational symmetry number  1.
 Rotational temperature (Kelvin)      1.63154
 Rotational constant (GHZ):          33.995822
    2 imaginary frequencies ignored.
 Zero-point vibrational energy      12742.3 (Joules/Mol)
                                    3.04548 (Kcal/Mol)
 Vibrational temperatures:   1532.55  1532.55
          (Kelvin)

 Zero-point correction=                           0.004853 (Hartree/Particle)
 Thermal correction to Energy=                    0.007271
 Thermal correction to Enthalpy=                  0.008215
 Thermal correction to Gibbs Free Energy=        -0.015031
 Sum of electronic and zero-point Energies=           -100.874209
 Sum of electronic and thermal Energies=              -100.871792
 Sum of electronic and thermal Enthalpies=            -100.870847
 Sum of electronic and thermal Free Energies=         -100.894094

                     E (Thermal)             CV                S
                      KCal/Mol        Cal/Mol-Kelvin    Cal/Mol-Kelvin
 Total                    4.563              5.590             48.926
 Electronic               0.000              0.000              1.377
 Translational            0.889              2.981             35.068
 Rotational               0.592              1.987             12.337
 Vibrational              3.081              0.622              0.144

 Normal termination of Gaussian 16 at Fri Aug 22 16:20:25 2025.
