 Gaussian 16, Revision C.01,
 Gaussian 16:  ES64L-G16RevC.01  3-Jul-2019

 -----------------------------------------
 # sp b3lyp/6-311g** Force nosymm scf=(qc)
 -----------------------------------------

 -------------------
 Title Card Required
 -------------------
 Symbolic Z-matrix:
 Charge =  0 Multiplicity = 2

                          Input orientation:
 ---------------------------------------------------------------------
 Center     Atomic      Atomic             Coordinates (Angstroms)
 Number     Number       Type             X           Y           Z
 ---------------------------------------------------------------------
      1          1           0        0.000000    0.000000    0.000000
      2          1           0       -3.900000    0.000000    0.000000
      3          9           0        3.650000    0.000000    0.000000
 ---------------------------------------------------------------------

 SCF Done:  E(UB3LYP) =  -100.758668836     a.u. after   36 cycles

 Alpha  occ. eigenvalues --  -24.75595  -1.21543  -0.54719  -0.45943  -0.45943
 Alpha  occ. eigenvalues --   -0.32268
 Alpha virt. eigenvalues --   -0.06128   0.24160   0.37533   0.87172   0.91351
 Alpha virt. eigenvalues --    0.91351   1.01488   1.25228   1.25228   1.25259
 Alpha virt. eigenvalues --    1.46396   1.46396   1.47068   2.14619   2.42471

  Beta  occ. eigenvalues --  -24.72468  -1.12554  -0.42808  -0.42808  -0.32651
  Beta virt. eigenvalues --   -0.25589  -0.05908   0.23912   0.38196   0.92844
  Beta virt. eigenvalues --    0.92844   0.96401   1.05545   1.24797   1.24797
  Beta virt. eigenvalues --    1.24811   1.46596   1.46715   1.46715   2.14701

 Mulliken charges and spin densities:
               1          2
     1  H    0.007549  -0.990843
     2  H    0.000045   0.999203
     3  F   -0.007594   0.991640
 Sum of Mulliken charges =  -0.00000   1.00000

 Dipole moment (field-independent basis, Debye):
    X=             -0.1436    Y=              0.0000    Z=             -0.0000  Tot=              0.1436
 Quadrupole moment (field-independent basis, Debye-Ang):
   XX=             -7.2257   YY=             -7.6186   ZZ=             -7.6186
   XY=              0.0000   XZ=             -0.0000   YZ=              0.0000

  Exact polarizability:      18.812      -0.000       1.972       0.000       0.000       1.972
 Approx polarizability:      14.204       0.000       1.935      -0.000      -0.000       1.935

 ******    2 imaginary frequencies (negative Signs) ******

                      1                      2                      3
                      A                      A                      A
 Frequencies --   -186.7488               -70.9502                96.2621
 Red. masses --      1.0380                 1.0742                 1.0188
 Frc consts  --      0.0213                 0.0032                 0.0056
 IR Inten    --      6.2689                 0.2849                 0.1240

                      4
                      A
 Frequencies --     96.2846
 Red. masses --      1.0188
 Frc consts  --      0.0056
 IR Inten    --      0.1241

 - Thermochemistry -
 -------------------
 Temperature   298.150 Kelvin.  Pressure   1.00000 Atm.
 Atom     1 has atomic number  1 and mass   1.00783

 Molecular mass:    21.01405 amu.
 Principal axes and moments of inertia in atomic units:
                           1         2         3
     Eigenvalues --     0.00000 231.44846 231.44846
           X            1.00000  -0.00000   0.00000
           Y            0.00000   1.00000   0.00000
           Z            0.00000   0.00000   1.00000
 This molecule is a prolate symmetric top.
 Rotational symmetry number  1.
 Rotational temperature (Kelvin)      0.37423
 Rotational constant (GHZ):           7.797594
    2 imaginary frequencies ignored.
 Zero-point vibrational energy       1151.7 (Joules/Mol)
                                    0.27526 (Kcal/Mol)
 Warning -- explicit consideration of   2 degrees of freedom as
           vibrations may cause significant error
 Vibrational temperatures:    138.50   138.53
          (Kelvin)

 Zero-point correction=                           0.000439 (Hartree/Particle)
 Thermal correction to Energy=                    0.004283
 Thermal correction to Enthalpy=                  0.005227
 Thermal correction to Gibbs Free Energy=        -0.022694
 Sum of electronic and zero-point Energies=           -100.758230
 Sum of electronic and thermal Energies=              -100.754386
 Sum of electronic and thermal Enthalpies=            -100.753442
 Sum of electronic and thermal Free Energies=         -100.781363

                     E (Thermal)             CV                S
                      KCal/Mol        Cal/Mol-Kelvin    Cal/Mol-Kelvin
 Total                    2.687              8.872             58.765
 Electronic               0.000              0.000              1.377
 Translational            0.889              2.981             35.068
 Rotational               0.592              1.987             15.263
 Vibrational              1.206              3.904              7.057
 Vibration     1          0.603              1.952              3.529
 Vibration     2          0.603              1.952              3.528

 Normal termination of Gaussian 16 at Fri Aug 22 23:38:44 2025.
