 Gaussian 16, Revision C.01,
 Gaussian 16:  ES64L-G16RevC.01  3-Jul-2019

 -----------------------------------------
 # sp b3lyp/6-311g** Force nosymm scf=(qc)
 -----------------------------------------

 -------------------
 Title Card Required
 -------------------
 Symbolic Z-matrix:
 Charge =  0 Multiplicity = 2

                          Input orientation:
 ---------------------------------------------------------------------
 Center     Atomic      Atomic             Coordinates (Angstroms)
 Number     Number       Type             X           Y           Z
 ---------------------------------------------------------------------
      1          1           0        0.000000    0.000000    0.000000
      2          1           0       -1.400000    0.000000    0.000000
      3          9           0        2.500000    0.000000    0.000000
 ---------------------------------------------------------------------

 SCF Done:  E(UB3LYP) =  -100.838808007     a.u. after   18 cycles

 Alpha  occ. eigenvalues --  -24.74083  -1.20157  -0.53292  -0.44700  -0.44700
 Alpha  occ. eigenvalues --   -0.36198
 Alpha virt. eigenvalues --   -0.09076   0.23433   0.31814   0.89128   0.92137
 Alpha virt. eigenvalues --    0.92137   1.05455   1.14798   1.16076   1.16076
 Alpha virt. eigenvalues --    1.43439   1.43439   1.88358   2.23718   2.49733

  Beta  occ. eigenvalues --  -24.71092  -1.11601  -0.41711  -0.41711  -0.35789
  Beta virt. eigenvalues --   -0.25332  -0.08335   0.24073   0.32212   0.93561
  Beta virt. eigenvalues --    0.93561   0.96563   1.07865   1.16606   1.16606
  Beta virt. eigenvalues --    1.17910   1.43879   1.43879   1.88967   2.24511

 Mulliken charges and spin densities:
               1          2
     1  H    0.009869  -0.154387
     2  H    0.033973   0.208904
     3  F   -0.043842   0.945483
 Sum of Mulliken charges =  -0.00000   1.00000

 Dipole moment (field-independent basis, Debye):
    X=             -0.7789    Y=              0.0000    Z=             -0.0000  Tot=              0.7789
 Quadrupole moment (field-independent basis, Debye-Ang):
   XX=             -6.5215   YY=             -7.6240   ZZ=             -7.6240
   XY=             -0.0000   XZ=              0.0000   YZ=              0.0000

  Exact polarizability:      52.127      -0.000       2.081       0.000      -0.000       2.081
 Approx polarizability:      71.906       0.000       2.066      -0.000      -0.000       2.066

 ******    2 imaginary frequencies (negative Signs) ******

                      1                      2                      3
                      A                      A                      A
 Frequencies --  -1662.0649              -259.6729              1262.7237
 Red. masses --      1.0090                 1.1071                 1.0124
 Frc consts  --      1.6422                 0.0440                 0.9511
 IR Inten    --    681.0806                19.4148                 0.0103

                      4
                      A
 Frequencies --   1262.7237
 Red. masses --      1.0124
 Frc consts  --      0.9511
 IR Inten    --      0.0103

 - Thermochemistry -
 -------------------
 Temperature   298.150 Kelvin.  Pressure   1.00000 Atm.
 Atom     1 has atomic number  1 and mass   1.00783

 Molecular mass:    21.01405 amu.
 Principal axes and moments of inertia in atomic units:
                           1         2         3
     Eigenvalues --     0.00000  70.16474  70.16474
           X            1.00000  -0.00000   0.00000
           Y            0.00000   1.00000   0.00000
           Z            0.00000   0.00000   1.00000
 This molecule is a prolate symmetric top.
 Rotational symmetry number  1.
 Rotational temperature (Kelvin)      1.23444
 Rotational constant (GHZ):          25.721482
    2 imaginary frequencies ignored.
 Zero-point vibrational energy      15105.5 (Joules/Mol)
                                    3.61031 (Kcal/Mol)
 Vibrational temperatures:   1816.78  1816.78
          (Kelvin)

 Zero-point correction=                           0.005753 (Hartree/Particle)
 Thermal correction to Energy=                    0.008140
 Thermal correction to Enthalpy=                  0.009084
 Thermal correction to Gibbs Free Energy=        -0.014388
 Sum of electronic and zero-point Energies=           -100.833055
 Sum of electronic and thermal Energies=              -100.830668
 Sum of electronic and thermal Enthalpies=            -100.829724
 Sum of electronic and thermal Free Energies=         -100.853196

                     E (Thermal)             CV                S
                      KCal/Mol        Cal/Mol-Kelvin    Cal/Mol-Kelvin
 Total                    5.108              5.303             49.400
 Electronic               0.000              0.000              1.377
 Translational            0.889              2.981             35.068
 Rotational               0.592              1.987             12.891
 Vibrational              3.627              0.335              0.064

 Normal termination of Gaussian 16 at Fri Aug 22 17:44:07 2025.
