 Gaussian 16, Revision C.01,
 Gaussian 16:  ES64L-G16RevC.01  3-Jul-2019

 -----------------------------------------
 # sp b3lyp/6-311g** Force nosymm scf=(qc)
 -----------------------------------------

 -------------------
 Title Card Required
 -------------------
 Symbolic Z-matrix:
 Charge =  0 Multiplicity = 2

                          Input orientation:
 ---------------------------------------------------------------------
 Center     Atomic      Atomic             Coordinates (Angstroms)
 Number     Number       Type             X           Y           Z
 ---------------------------------------------------------------------
      1          1           0        0.000000    0.000000    0.000000
      2          1           0       -2.700000    0.000000    0.000000
      3          9           0        3.200000    0.000000    0.000000
 ---------------------------------------------------------------------

 SCF Done:  E(UB3LYP) =  -100.762158404     a.u. after   22 cycles

 Alpha  occ. eigenvalues --  -24.74768  -1.20776  -0.53888  -0.45246  -0.45246
 Alpha  occ. eigenvalues --   -0.32735
 Alpha virt. eigenvalues --   -0.09386   0.25275   0.34440   0.88721   0.91861
 Alpha virt. eigenvalues --    0.91861   1.02874   1.24852   1.24852   1.26312
 Alpha virt. eigenvalues --    1.41754   1.41754   1.42468   2.15815   2.38028

  Beta  occ. eigenvalues --  -24.71696  -1.11958  -0.42169  -0.42169  -0.33367
  Beta virt. eigenvalues --   -0.25165  -0.08457   0.25165   0.35662   0.93337
  Beta virt. eigenvalues --    0.93337   0.97672   1.06808   1.24099   1.24099
  Beta virt. eigenvalues --    1.25434   1.43247   1.43247   1.43890   2.16543

 Mulliken charges and spin densities:
               1          2
     1  H    0.021008  -0.957214
     2  H    0.002478   0.983243
     3  F   -0.023486   0.973970
 Sum of Mulliken charges =  -0.00000   1.00000

 Dipole moment (field-independent basis, Debye):
    X=             -0.4179    Y=              0.0000    Z=              0.0000  Tot=              0.4179
 Quadrupole moment (field-independent basis, Debye-Ang):
   XX=             -7.6929   YY=             -7.6443   ZZ=             -7.6443
   XY=             -0.0000   XZ=             -0.0000   YZ=              0.0000

  Exact polarizability:      36.867      -0.000       2.021      -0.000      -0.000       2.021
 Approx polarizability:      31.358      -0.000       1.926      -0.000       0.000       1.926

 ******    2 imaginary frequencies (negative Signs) ******

                      1                      2                      3
                      A                      A                      A
 Frequencies --   -535.1249              -186.1173               195.7459
 Red. masses --      1.0104                 1.1054                 1.0160
 Frc consts  --      0.1705                 0.0226                 0.0229
 IR Inten    --     16.5407                11.0712                 0.3587

                      4
                      A
 Frequencies --    195.7459
 Red. masses --      1.0160
 Frc consts  --      0.0229
 IR Inten    --      0.3587

 - Thermochemistry -
 -------------------
 Temperature   298.150 Kelvin.  Pressure   1.00000 Atm.
 Atom     1 has atomic number  1 and mass   1.00783

 Molecular mass:    21.01405 amu.
 Principal axes and moments of inertia in atomic units:
                           1         2         3
     Eigenvalues --     0.00000 147.84176 147.84176
           X            1.00000  -0.00000   0.00000
           Y            0.00000   1.00000   0.00000
           Z            0.00000   0.00000   1.00000
 This molecule is a prolate symmetric top.
 Rotational symmetry number  1.
 Rotational temperature (Kelvin)      0.58586
 Rotational constant (GHZ):          12.207250
    2 imaginary frequencies ignored.
 Zero-point vibrational energy       2341.6 (Joules/Mol)
                                    0.55967 (Kcal/Mol)
 Warning -- explicit consideration of   2 degrees of freedom as
           vibrations may cause significant error
 Vibrational temperatures:    281.63   281.63
          (Kelvin)

 Zero-point correction=                           0.000892 (Hartree/Particle)
 Thermal correction to Energy=                    0.004387
 Thermal correction to Enthalpy=                  0.005331
 Thermal correction to Gibbs Free Energy=        -0.020878
 Sum of electronic and zero-point Energies=           -100.761267
 Sum of electronic and thermal Energies=              -100.757771
 Sum of electronic and thermal Enthalpies=            -100.756827
 Sum of electronic and thermal Free Energies=         -100.783037

                     E (Thermal)             CV                S
                      KCal/Mol        Cal/Mol-Kelvin    Cal/Mol-Kelvin
 Total                    2.753              8.660             55.163
 Electronic               0.000              0.000              1.377
 Translational            0.889              2.981             35.068
 Rotational               0.592              1.987             14.372
 Vibrational              1.272              3.692              4.345
 Vibration     1          0.636              1.846              2.173
 Vibration     2          0.636              1.846              2.173

 Normal termination of Gaussian 16 at Fri Aug 22 20:24:00 2025.
