 Gaussian 16, Revision C.01,
 Gaussian 16:  ES64L-G16RevC.01  3-Jul-2019

 -----------------------------------------
 # sp b3lyp/6-311g** Force nosymm scf=(qc)
 -----------------------------------------

 -------------------
 Title Card Required
 -------------------
 Symbolic Z-matrix:
 Charge =  0 Multiplicity = 2

                          Input orientation:
 ---------------------------------------------------------------------
 Center     Atomic      Atomic             Coordinates (Angstroms)
 Number     Number       Type             X           Y           Z
 ---------------------------------------------------------------------
      1          1           0        0.000000    0.000000    0.000000
      2          1           0       -3.300000    0.000000    0.000000
      3          9           0        0.500000    0.000000    0.000000
 ---------------------------------------------------------------------

 SCF Done:  E(UB3LYP) =  -100.268997316     a.u. after    6 cycles

 Alpha  occ. eigenvalues --  -24.63029  -1.42349  -0.63506  -0.44332  -0.44332
 Alpha  occ. eigenvalues --   -0.33383
 Alpha virt. eigenvalues --    0.08123   0.25329   0.62174   0.88996   0.90155
 Alpha virt. eigenvalues --    0.90155   1.23648   1.24131   1.24131   1.38214
 Alpha virt. eigenvalues --    1.58520   1.58520   2.00218   2.15332   3.76635

  Beta  occ. eigenvalues --  -24.63028  -1.42347  -0.63506  -0.44332  -0.44332
  Beta virt. eigenvalues --   -0.05332   0.08778   0.39524   0.62225   0.88994
  Beta virt. eigenvalues --    0.90152   0.90152   1.36556   1.50368   1.50368
  Beta virt. eigenvalues --    1.51839   1.58522   1.58522   2.00180   2.45301

 Mulliken charges and spin densities:
               1          2
     1  H    0.125496   0.000624
     2  H    0.001094   0.998729
     3  F   -0.126590   0.000647
 Sum of Mulliken charges =   0.00000   1.00000

 Dipole moment (field-independent basis, Debye):
    X=             -1.3067    Y=              0.0000    Z=              0.0000  Tot=              1.3067
 Quadrupole moment (field-independent basis, Debye-Ang):
   XX=             -6.6253   YY=             -6.4387   ZZ=             -6.4387
   XY=              0.0000   XZ=              0.0000   YZ=              0.0000

  Exact polarizability:       3.211      -0.000       2.416       0.000      -0.000       2.416
 Approx polarizability:       3.346      -0.000       2.393       0.000      -0.000       2.393

 ******    3 imaginary frequencies (negative Signs) ******

                      1                      2                      3
                      A                      A                      A
 Frequencies --  -9589.8814             -9589.8814               -23.8500
 Red. masses --      1.0453                 1.0453                 1.0532
 Frc consts  --     56.6381                56.6381                 0.0004
 IR Inten    --    281.7532               281.7532                 0.0372

                      4
                      A
 Frequencies --  19159.3296
 Red. masses --      1.0583
 Frc consts  --    228.8885
 IR Inten    --     77.8883

 - Thermochemistry -
 -------------------
 Temperature   298.150 Kelvin.  Pressure   1.00000 Atm.
 Atom     1 has atomic number  1 and mass   1.00783

 Molecular mass:    21.01405 amu.
 Principal axes and moments of inertia in atomic units:
                           1         2         3
     Eigenvalues --     0.00000  49.67793  49.67793
           X            1.00000  -0.00000   0.00000
           Y            0.00000   1.00000   0.00000
           Z            0.00000   0.00000   1.00000
 This molecule is a prolate symmetric top.
 Rotational symmetry number  1.
 Rotational temperature (Kelvin)      1.74351
 Rotational constant (GHZ):          36.328830
    3 imaginary frequencies ignored.
 Zero-point vibrational energy     114598.2 (Joules/Mol)
                                   27.38964 (Kcal/Mol)
 Vibrational temperatures:  27566.00
          (Kelvin)

 Zero-point correction=                           0.043648 (Hartree/Particle)
 Thermal correction to Energy=                    0.046009
 Thermal correction to Enthalpy=                  0.046953
 Thermal correction to Gibbs Free Energy=         0.023838
 Sum of electronic and zero-point Energies=           -100.225349
 Sum of electronic and thermal Energies=              -100.222989
 Sum of electronic and thermal Enthalpies=            -100.222045
 Sum of electronic and thermal Free Energies=         -100.245160

                     E (Thermal)             CV                S
                      KCal/Mol        Cal/Mol-Kelvin    Cal/Mol-Kelvin
 Total                   28.871              4.968             48.650
 Electronic               0.000              0.000              1.377
 Translational            0.889              2.981             35.068
 Rotational               0.592              1.987             12.205
 Vibrational             27.390              0.000              0.000

 Normal termination of Gaussian 16 at Fri Aug 22 15:37:48 2025.
