 Gaussian 16, Revision C.01,
 Gaussian 16:  ES64L-G16RevC.01  3-Jul-2019

 -----------------------------------------
 # sp b3lyp/6-311g** Force nosymm scf=(qc)
 -----------------------------------------

 -------------------
 Title Card Required
 -------------------
 Symbolic Z-matrix:
 Charge =  0 Multiplicity = 2

                          Input orientation:
 ---------------------------------------------------------------------
 Center     Atomic      Atomic             Coordinates (Angstroms)
 Number     Number       Type             X           Y           Z
 ---------------------------------------------------------------------
      1          1           0        0.000000    0.000000    0.000000
      2          1           0       -1.850000    0.000000    0.000000
      3          9           0        3.400000    0.000000    0.000000
 ---------------------------------------------------------------------

 SCF Done:  E(UB3LYP) =  -100.782877847     a.u. after   30 cycles

 Alpha  occ. eigenvalues --  -24.75527  -1.21481  -0.54651  -0.45892  -0.45892
 Alpha  occ. eigenvalues --   -0.33359
 Alpha virt. eigenvalues --   -0.11255   0.25699   0.31227   0.87941   0.91371
 Alpha virt. eigenvalues --    0.91371   1.01980   1.11271   1.24447   1.24447
 Alpha virt. eigenvalues --    1.37166   1.37166   1.58169   2.13884   2.38601

  Beta  occ. eigenvalues --  -24.72412  -1.12530  -0.42770  -0.42770  -0.33371
  Beta virt. eigenvalues --   -0.25635  -0.11049   0.25677   0.31629   0.92860
  Beta virt. eigenvalues --    0.92860   0.97055   1.06010   1.11321   1.24428
  Beta virt. eigenvalues --    1.24428   1.37419   1.37419   1.58389   2.14500

 Mulliken charges and spin densities:
               1          2
     1  H    0.001927  -0.755898
     2  H    0.008523   0.768251
     3  F   -0.010450   0.987647
 Sum of Mulliken charges =   0.00000   1.00000

 Dipole moment (field-independent basis, Debye):
    X=             -0.2563    Y=              0.0000    Z=              0.0000  Tot=              0.2563
 Quadrupole moment (field-independent basis, Debye-Ang):
   XX=             -6.4606   YY=             -7.7459   ZZ=             -7.7459
   XY=              0.0000   XZ=              0.0000   YZ=              0.0000

  Exact polarizability:      47.636       0.000       1.996      -0.000       0.000       1.996
 Approx polarizability:      46.775       0.000       1.951       0.000      -0.000       1.951

 ******    2 imaginary frequencies (negative Signs) ******

                      1                      2                      3
                      A                      A                      A
 Frequencies --  -1638.4624              -143.7996               707.2794
 Red. masses --      1.0078                 1.1085                 1.0123
 Frc consts  --      1.5941                 0.0135                 0.2983
 IR Inten    --     20.5644                 8.9938                 0.0019

                      4
                      A
 Frequencies --    707.2794
 Red. masses --      1.0123
 Frc consts  --      0.2983
 IR Inten    --      0.0019

 - Thermochemistry -
 -------------------
 Temperature   298.150 Kelvin.  Pressure   1.00000 Atm.
 Atom     1 has atomic number  1 and mass   1.00783

 Molecular mass:    21.01405 amu.
 Principal axes and moments of inertia in atomic units:
                           1         2         3
     Eigenvalues --     0.00000 127.88733 127.88733
           X            1.00000  -0.00000   0.00000
           Y            0.00000   1.00000   0.00000
           Z            0.00000   0.00000   1.00000
 This molecule is a prolate symmetric top.
 Rotational symmetry number  1.
 Rotational temperature (Kelvin)      0.67727
 Rotational constant (GHZ):          14.111962
    2 imaginary frequencies ignored.
 Zero-point vibrational energy       8460.9 (Joules/Mol)
                                    2.02221 (Kcal/Mol)
 Vibrational temperatures:   1017.62  1017.62
          (Kelvin)

 Zero-point correction=                           0.003223 (Hartree/Particle)
 Thermal correction to Energy=                    0.005803
 Thermal correction to Enthalpy=                  0.006747
 Thermal correction to Gibbs Free Energy=        -0.017544
 Sum of electronic and zero-point Energies=           -100.779655
 Sum of electronic and thermal Energies=              -100.777075
 Sum of electronic and thermal Enthalpies=            -100.776131
 Sum of electronic and thermal Free Energies=         -100.800422

                     E (Thermal)             CV                S
                      KCal/Mol        Cal/Mol-Kelvin    Cal/Mol-Kelvin
 Total                    3.641              6.599             51.124
 Electronic               0.000              0.000              1.377
 Translational            0.889              2.981             35.068
 Rotational               0.592              1.987             14.084
 Vibrational              2.160              1.631              0.595

 Normal termination of Gaussian 16 at Fri Aug 22 21:16:24 2025.
