 Gaussian 16, Revision C.01,
 Gaussian 16:  ES64L-G16RevC.01  3-Jul-2019

 -----------------------------------------
 # sp b3lyp/6-311g** Force nosymm scf=(qc)
 -----------------------------------------

 -------------------
 Title Card Required
 -------------------
 Symbolic Z-matrix:
 Charge =  0 Multiplicity = 2

                          Input orientation:
 ---------------------------------------------------------------------
 Center     Atomic      Atomic             Coordinates (Angstroms)
 Number     Number       Type             X           Y           Z
 ---------------------------------------------------------------------
      1          1           0        0.000000    0.000000    0.000000
      2          1           0       -3.650000    0.000000    0.000000
      3          9           0        2.400000    0.000000    0.000000
 ---------------------------------------------------------------------

 SCF Done:  E(UB3LYP) =  -100.769364410     a.u. after   20 cycles

 Alpha  occ. eigenvalues --  -24.68291  -1.09435  -0.39386  -0.39386  -0.35810
 Alpha  occ. eigenvalues --   -0.32843
 Alpha virt. eigenvalues --   -0.22897   0.21004   0.27927   0.94456   0.95263
 Alpha virt. eigenvalues --    0.95263   1.08397   1.21815   1.21815   1.24604
 Alpha virt. eigenvalues --    1.24604   1.24631   1.33080   2.10816   2.16101

  Beta  occ. eigenvalues --  -24.71070  -1.17325  -0.50162  -0.42152  -0.42152
  Beta virt. eigenvalues --   -0.11178  -0.04393   0.32453   0.40398   0.89262
  Beta virt. eigenvalues --    0.93959   0.93959   1.06312   1.39563   1.39563
  Beta virt. eigenvalues --    1.46092   1.48292   1.48292   1.48449   2.35216

 Mulliken charges and spin densities:
               1          2
     1  H    0.106629   0.877777
     2  H    0.000638   0.999373
     3  F   -0.107268  -0.877150
 Sum of Mulliken charges =   0.00000   1.00000

 Dipole moment (field-independent basis, Debye):
    X=             -1.3149    Y=              0.0000    Z=              0.0000  Tot=              1.3149
 Quadrupole moment (field-independent basis, Debye-Ang):
   XX=             -9.5591   YY=             -7.5474   ZZ=             -7.5474
   XY=              0.0000   XZ=              0.0000   YZ=              0.0000

  Exact polarizability:      30.135       0.000       2.030       0.000      -0.000       2.030
 Approx polarizability:      39.836       0.000       1.923       0.000      -0.000       1.923

 ******    1 imaginary frequencies (negative Signs) ******

                      1                      2                      3
                      A                      A                      A
 Frequencies --   -671.9490                68.0247               270.0795
 Red. masses --      1.0597                 1.0519                 1.0237
 Frc consts  --      0.2819                 0.0029                 0.0440
 IR Inten    --     84.8663                 0.0550                10.9362

                      4
                      A
 Frequencies --    270.0795
 Red. masses --      1.0237
 Frc consts  --      0.0440
 IR Inten    --     10.9362

 - Thermochemistry -
 -------------------
 Temperature   298.150 Kelvin.  Pressure   1.00000 Atm.
 Atom     1 has atomic number  1 and mass   1.00783

 Molecular mass:    21.01405 amu.
 Principal axes and moments of inertia in atomic units:
                           1         2         3
     Eigenvalues --     0.00000 140.13843 140.13843
           X            1.00000  -0.00000   0.00000
           Y            0.00000   1.00000   0.00000
           Z            0.00000   0.00000   1.00000
 This molecule is a prolate symmetric top.
 Rotational symmetry number  1.
 Rotational temperature (Kelvin)      0.61806
 Rotational constant (GHZ):          12.878274
    1 imaginary frequencies ignored.
 Zero-point vibrational energy       3637.7 (Joules/Mol)
                                    0.86944 (Kcal/Mol)
 Warning -- explicit consideration of   3 degrees of freedom as
           vibrations may cause significant error
 Vibrational temperatures:     97.87   388.58   388.58
          (Kelvin)

 Zero-point correction=                           0.001386 (Hartree/Particle)
 Thermal correction to Energy=                    0.005462
 Thermal correction to Enthalpy=                  0.006406
 Thermal correction to Gibbs Free Energy=        -0.021205
 Sum of electronic and zero-point Energies=           -100.767979
 Sum of electronic and thermal Energies=              -100.763903
 Sum of electronic and thermal Enthalpies=            -100.762959
 Sum of electronic and thermal Free Energies=         -100.790570

                     E (Thermal)             CV                S
                      KCal/Mol        Cal/Mol-Kelvin    Cal/Mol-Kelvin
 Total                    3.427             10.394             58.112
 Electronic               0.000              0.000              1.377
 Translational            0.889              2.981             35.068
 Rotational               0.592              1.987             14.266
 Vibrational              1.946              5.426              7.401
 Vibration     1          0.598              1.969              4.210
 Vibration     2          0.674              1.728              1.596
 Vibration     3          0.674              1.728              1.596

 Normal termination of Gaussian 16 at Fri Aug 22 17:33:42 2025.
