 Gaussian 16, Revision C.01,
 Gaussian 16:  ES64L-G16RevC.01  3-Jul-2019

 -----------------------------------------
 # sp b3lyp/6-311g** Force nosymm scf=(qc)
 -----------------------------------------

 -------------------
 Title Card Required
 -------------------
 Symbolic Z-matrix:
 Charge =  0 Multiplicity = 2

                          Input orientation:
 ---------------------------------------------------------------------
 Center     Atomic      Atomic             Coordinates (Angstroms)
 Number     Number       Type             X           Y           Z
 ---------------------------------------------------------------------
      1          1           0        0.000000    0.000000    0.000000
      2          1           0       -2.250000    0.000000    0.000000
      3          9           0        0.700000    0.000000    0.000000
 ---------------------------------------------------------------------

 SCF Done:  E(UB3LYP) =  -100.874877371     a.u. after    6 cycles

 Alpha  occ. eigenvalues --  -24.63116  -1.28153  -0.58589  -0.41682  -0.41682
 Alpha  occ. eigenvalues --   -0.34876
 Alpha virt. eigenvalues --    0.08850   0.25146   0.51403   0.93558   0.93558
 Alpha virt. eigenvalues --    0.95798   1.15807   1.22666   1.22666   1.44141
 Alpha virt. eigenvalues --    1.44141   1.49474   1.96662   2.16117   2.86643

  Beta  occ. eigenvalues --  -24.63098  -1.28103  -0.58517  -0.41670  -0.41670
  Beta virt. eigenvalues --   -0.09366   0.10380   0.37159   0.51187   0.93554
  Beta virt. eigenvalues --    0.93554   0.96021   1.26700   1.43437   1.43437
  Beta virt. eigenvalues --    1.44506   1.44506   1.60729   1.98006   2.43221

 Mulliken charges and spin densities:
               1          2
     1  H    0.253467   0.005883
     2  H    0.006975   0.989548
     3  F   -0.260442   0.004569
 Sum of Mulliken charges =   0.00000   1.00000

 Dipole moment (field-independent basis, Debye):
    X=             -1.6584    Y=             -0.0000    Z=             -0.0000  Tot=              1.6584
 Quadrupole moment (field-independent basis, Debye-Ang):
   XX=             -7.0627   YY=             -6.6469   ZZ=             -6.6469
   XY=             -0.0000   XZ=             -0.0000   YZ=             -0.0000

  Exact polarizability:       6.005       0.000       2.485      -0.000       0.000       2.485
 Approx polarizability:       6.043       0.000       2.473       0.000      -0.000       2.473

 ******    2 imaginary frequencies (negative Signs) ******

                      1                      2                      3
                      A                      A                      A
 Frequencies --  -3515.9349             -3515.9349               201.4072
 Red. masses --      1.0357                 1.0357                 1.0533
 Frc consts  --      7.5431                 7.5431                 0.0252
 IR Inten    --    191.3267               191.3267                 0.2616

                      4
                      A
 Frequencies --   9071.2650
 Red. masses --      1.0583
 Frc consts  --     51.3094
 IR Inten    --    129.9473

 - Thermochemistry -
 -------------------
 Temperature   298.150 Kelvin.  Pressure   1.00000 Atm.
 Atom     1 has atomic number  1 and mass   1.00783

 Molecular mass:    21.01405 amu.
 Principal axes and moments of inertia in atomic units:
                           1         2         3
     Eigenvalues --     0.00000  30.78433  30.78433
           X            1.00000  -0.00000   0.00000
           Y            0.00000   1.00000   0.00000
           Z            0.00000   0.00000   1.00000
 This molecule is a prolate symmetric top.
 Rotational symmetry number  1.
 Rotational temperature (Kelvin)      2.81357
 Rotational constant (GHZ):          58.625319
    2 imaginary frequencies ignored.
 Zero-point vibrational energy      55462.9 (Joules/Mol)
                                   13.25595 (Kcal/Mol)
 Warning -- explicit consideration of   1 degrees of freedom as
           vibrations may cause significant error
 Vibrational temperatures:    289.78 13051.53
          (Kelvin)

 Zero-point correction=                           0.021125 (Hartree/Particle)
 Thermal correction to Energy=                    0.024044
 Thermal correction to Enthalpy=                  0.024988
 Thermal correction to Gibbs Free Energy=         0.001317
 Sum of electronic and zero-point Energies=           -100.853753
 Sum of electronic and thermal Energies=              -100.850834
 Sum of electronic and thermal Enthalpies=            -100.849889
 Sum of electronic and thermal Free Energies=         -100.873560

                     E (Thermal)             CV                S
                      KCal/Mol        Cal/Mol-Kelvin    Cal/Mol-Kelvin
 Total                   15.088              6.806             49.819
 Electronic               0.000              0.000              1.377
 Translational            0.889              2.981             35.068
 Rotational               0.592              1.987             11.254
 Vibrational             13.606              1.838              2.120
 Vibration     1          0.638              1.838              2.120

 Normal termination of Gaussian 16 at Fri Aug 22 15:46:36 2025.
