 Gaussian 16, Revision C.01,
 Gaussian 16:  ES64L-G16RevC.01  3-Jul-2019

 -----------------------------------------
 # sp b3lyp/6-311g** Force nosymm scf=(qc)
 -----------------------------------------

 -------------------
 Title Card Required
 -------------------
 Symbolic Z-matrix:
 Charge =  0 Multiplicity = 2

                          Input orientation:
 ---------------------------------------------------------------------
 Center     Atomic      Atomic             Coordinates (Angstroms)
 Number     Number       Type             X           Y           Z
 ---------------------------------------------------------------------
      1          1           0        0.000000    0.000000    0.000000
      2          1           0       -3.500000    0.000000    0.000000
      3          9           0        3.450000    0.000000    0.000000
 ---------------------------------------------------------------------

 SCF Done:  E(UB3LYP) =  -100.759237258     a.u. after   32 cycles

 Alpha  occ. eigenvalues --  -24.75296  -1.21266  -0.54418  -0.45690  -0.45690
 Alpha  occ. eigenvalues --   -0.32355
 Alpha virt. eigenvalues --   -0.07081   0.24271   0.36902   0.87760   0.91537
 Alpha virt. eigenvalues --    0.91537   1.01952   1.25150   1.25150   1.25302
 Alpha virt. eigenvalues --    1.45168   1.45168   1.45174   2.15005   2.41195

  Beta  occ. eigenvalues --  -24.72188  -1.12336  -0.42575  -0.42575  -0.32891
  Beta virt. eigenvalues --   -0.25437  -0.06483   0.24036   0.37919   0.93024
  Beta virt. eigenvalues --    0.93024   0.96861   1.05941   1.24533   1.24533
  Beta virt. eigenvalues --    1.24668   1.45883   1.46119   1.46119   2.15236

 Mulliken charges and spin densities:
               1          2
     1  H    0.013023  -0.983363
     2  H    0.000201   0.997892
     3  F   -0.013224   0.985471
 Sum of Mulliken charges =  -0.00000   1.00000

 Dipole moment (field-independent basis, Debye):
    X=             -0.2380    Y=             -0.0000    Z=              0.0000  Tot=              0.2380
 Quadrupole moment (field-independent basis, Debye-Ang):
   XX=             -7.4726   YY=             -7.6212   ZZ=             -7.6212
   XY=              0.0000   XZ=             -0.0000   YZ=             -0.0000

  Exact polarizability:      24.925       0.000       2.033      -0.000      -0.000       2.033
 Approx polarizability:      20.142       0.000       1.933      -0.000       0.000       1.933

 ******    2 imaginary frequencies (negative Signs) ******

                      1                      2                      3
                      A                      A                      A
 Frequencies --   -253.6207              -105.2765                80.0897
 Red. masses --      1.0295                 1.0834                 1.0181
 Frc consts  --      0.0390                 0.0071                 0.0038
 IR Inten    --     12.3576                 1.2722                 0.1514

                      4
                      A
 Frequencies --     80.0897
 Red. masses --      1.0181
 Frc consts  --      0.0038
 IR Inten    --      0.1514

 - Thermochemistry -
 -------------------
 Temperature   298.150 Kelvin.  Pressure   1.00000 Atm.
 Atom     1 has atomic number  1 and mass   1.00783

 Molecular mass:    21.01405 amu.
 Principal axes and moments of inertia in atomic units:
                           1         2         3
     Eigenvalues --     0.00000 198.00915 198.00915
           X            1.00000  -0.00000   0.00000
           Y            0.00000   1.00000   0.00000
           Z            0.00000   0.00000   1.00000
 This molecule is a prolate symmetric top.
 Rotational symmetry number  1.
 Rotational temperature (Kelvin)      0.43742
 Rotational constant (GHZ):           9.114434
    2 imaginary frequencies ignored.
 Zero-point vibrational energy        958.1 (Joules/Mol)
                                    0.22899 (Kcal/Mol)
 Warning -- explicit consideration of   2 degrees of freedom as
           vibrations may cause significant error
 Vibrational temperatures:    115.23   115.23
          (Kelvin)

 Zero-point correction=                           0.000365 (Hartree/Particle)
 Thermal correction to Energy=                    0.004272
 Thermal correction to Enthalpy=                  0.005216
 Thermal correction to Gibbs Free Energy=        -0.022900
 Sum of electronic and zero-point Energies=           -100.758872
 Sum of electronic and thermal Energies=              -100.754965
 Sum of electronic and thermal Enthalpies=            -100.754021
 Sum of electronic and thermal Free Energies=         -100.782137

                     E (Thermal)             CV                S
                      KCal/Mol        Cal/Mol-Kelvin    Cal/Mol-Kelvin
 Total                    2.681              8.893             59.175
 Electronic               0.000              0.000              1.377
 Translational            0.889              2.981             35.068
 Rotational               0.592              1.987             14.953
 Vibrational              1.200              3.925              7.777
 Vibration     1          0.600              1.963              3.889
 Vibration     2          0.600              1.963              3.889

 Normal termination of Gaussian 16 at Fri Aug 22 21:43:18 2025.
