 Gaussian 16, Revision C.01,
 Gaussian 16:  ES64L-G16RevC.01  3-Jul-2019

 -----------------------------------------
 # sp b3lyp/6-311g** Force nosymm scf=(qc)
 -----------------------------------------

 -------------------
 Title Card Required
 -------------------
 Symbolic Z-matrix:
 Charge =  0 Multiplicity = 2

                          Input orientation:
 ---------------------------------------------------------------------
 Center     Atomic      Atomic             Coordinates (Angstroms)
 Number     Number       Type             X           Y           Z
 ---------------------------------------------------------------------
      1          1           0        0.000000    0.000000    0.000000
      2          1           0       -2.550000    0.000000    0.000000
      3          9           0        3.200000    0.000000    0.000000
 ---------------------------------------------------------------------

 SCF Done:  E(UB3LYP) =  -100.763304407     a.u. after   24 cycles

 Alpha  occ. eigenvalues --  -24.74788  -1.20794  -0.53908  -0.45263  -0.45263
 Alpha  occ. eigenvalues --   -0.32840
 Alpha virt. eigenvalues --   -0.09853   0.25463   0.33983   0.88732   0.91849
 Alpha virt. eigenvalues --    0.91849   1.02868   1.24793   1.24793   1.26499
 Alpha virt. eigenvalues --    1.40906   1.40906   1.42249   2.15673   2.37087

  Beta  occ. eigenvalues --  -24.71715  -1.11973  -0.42184  -0.42184  -0.33389
  Beta virt. eigenvalues --   -0.25180  -0.08975   0.25388   0.35112   0.93325
  Beta virt. eigenvalues --    0.93325   0.97691   1.06816   1.24127   1.24127
  Beta virt. eigenvalues --    1.25675   1.42311   1.42311   1.43638   2.16521

 Mulliken charges and spin densities:
               1          2
     1  H    0.019562  -0.948582
     2  H    0.003577   0.974328
     3  F   -0.023139   0.974253
 Sum of Mulliken charges =  -0.00000   1.00000

 Dipole moment (field-independent basis, Debye):
    X=             -0.4236    Y=             -0.0000    Z=              0.0000  Tot=              0.4236
 Quadrupole moment (field-independent basis, Debye-Ang):
   XX=             -7.6055   YY=             -7.6552   ZZ=             -7.6552
   XY=             -0.0000   XZ=              0.0000   YZ=              0.0000

  Exact polarizability:      39.872      -0.000       2.018       0.000       0.000       2.018
 Approx polarizability:      33.175      -0.000       1.925       0.000      -0.000       1.925

 ******    2 imaginary frequencies (negative Signs) ******

                      1                      2                      3
                      A                      A                      A
 Frequencies --   -642.6582              -191.3857               237.0907
 Red. masses --      1.0090                 1.1071                 1.0154
 Frc consts  --      0.2455                 0.0239                 0.0336
 IR Inten    --     15.1083                13.2124                 0.2922

                      4
                      A
 Frequencies --    237.0907
 Red. masses --      1.0154
 Frc consts  --      0.0336
 IR Inten    --      0.2922

 - Thermochemistry -
 -------------------
 Temperature   298.150 Kelvin.  Pressure   1.00000 Atm.
 Atom     1 has atomic number  1 and mass   1.00783

 Molecular mass:    21.01405 amu.
 Principal axes and moments of inertia in atomic units:
                           1         2         3
     Eigenvalues --     0.00000 142.01982 142.01982
           X            1.00000  -0.00000   0.00000
           Y            0.00000   1.00000   0.00000
           Z            0.00000   0.00000   1.00000
 This molecule is a prolate symmetric top.
 Rotational symmetry number  1.
 Rotational temperature (Kelvin)      0.60987
 Rotational constant (GHZ):          12.707671
    2 imaginary frequencies ignored.
 Zero-point vibrational energy       2836.2 (Joules/Mol)
                                    0.67788 (Kcal/Mol)
 Warning -- explicit consideration of   2 degrees of freedom as
           vibrations may cause significant error
 Vibrational temperatures:    341.12   341.12
          (Kelvin)

 Zero-point correction=                           0.001080 (Hartree/Particle)
 Thermal correction to Energy=                    0.004450
 Thermal correction to Enthalpy=                  0.005395
 Thermal correction to Gibbs Free Energy=        -0.020446
 Sum of electronic and zero-point Energies=           -100.762224
 Sum of electronic and thermal Energies=              -100.758854
 Sum of electronic and thermal Enthalpies=            -100.757910
 Sum of electronic and thermal Free Energies=         -100.783751

                     E (Thermal)             CV                S
                      KCal/Mol        Cal/Mol-Kelvin    Cal/Mol-Kelvin
 Total                    2.793              8.536             54.387
 Electronic               0.000              0.000              1.377
 Translational            0.889              2.981             35.068
 Rotational               0.592              1.987             14.292
 Vibrational              1.311              3.568              3.649
 Vibration     1          0.656              1.784              1.825
 Vibration     2          0.656              1.784              1.825

 Normal termination of Gaussian 16 at Fri Aug 22 20:23:48 2025.
