 Gaussian 16, Revision C.01,
 Gaussian 16:  ES64L-G16RevC.01  3-Jul-2019

 -----------------------------------------
 # sp b3lyp/6-311g** Force nosymm scf=(qc)
 -----------------------------------------

 -------------------
 Title Card Required
 -------------------
 Symbolic Z-matrix:
 Charge =  0 Multiplicity = 2

                          Input orientation:
 ---------------------------------------------------------------------
 Center     Atomic      Atomic             Coordinates (Angstroms)
 Number     Number       Type             X           Y           Z
 ---------------------------------------------------------------------
      1          1           0        0.000000    0.000000    0.000000
      2          1           0       -1.300000    0.000000    0.000000
      3          9           0        2.250000    0.000000    0.000000
 ---------------------------------------------------------------------

 SCF Done:  E(UB3LYP) =  -100.857758491     a.u. after   14 cycles

 Alpha  occ. eigenvalues --  -24.73290  -1.19438  -0.52637  -0.44053  -0.44053
 Alpha  occ. eigenvalues --   -0.37641
 Alpha virt. eigenvalues --   -0.07095   0.22619   0.33180   0.87869   0.92358
 Alpha virt. eigenvalues --    0.92358   1.05870   1.13028   1.13028   1.24969
 Alpha virt. eigenvalues --    1.47249   1.47249   1.96814   2.26372   2.52047

  Beta  occ. eigenvalues --  -24.70374  -1.11131  -0.41146  -0.41146  -0.37187
  Beta virt. eigenvalues --   -0.25127  -0.05971   0.23391   0.33601   0.93720
  Beta virt. eigenvalues --    0.93720   0.94730   1.08769   1.13844   1.13844
  Beta virt. eigenvalues --    1.28061   1.47880   1.47880   1.97754   2.27363

 Mulliken charges and spin densities:
               1          2
     1  H    0.021562  -0.125419
     2  H    0.042661   0.206471
     3  F   -0.064223   0.918948
 Sum of Mulliken charges =  -0.00000   1.00000

 Dipole moment (field-independent basis, Debye):
    X=             -0.9834    Y=             -0.0000    Z=             -0.0000  Tot=              0.9834
 Quadrupole moment (field-independent basis, Debye-Ang):
   XX=             -6.7000   YY=             -7.5119   ZZ=             -7.5119
   XY=             -0.0000   XZ=             -0.0000   YZ=             -0.0000

  Exact polarizability:      47.081      -0.000       2.118      -0.000      -0.000       2.118
 Approx polarizability:      66.552       0.000       2.109       0.000       0.000       2.109

 ******    2 imaginary frequencies (negative Signs) ******

                      1                      2                      3
                      A                      A                      A
 Frequencies --  -1499.1579              -272.5682              1331.7392
 Red. masses --      1.0113                 1.1043                 1.0127
 Frc consts  --      1.3391                 0.0483                 1.0582
 IR Inten    --    817.0552                 8.8878                 0.0004

                      4
                      A
 Frequencies --   1331.7392
 Red. masses --      1.0127
 Frc consts  --      1.0582
 IR Inten    --      0.0004

 - Thermochemistry -
 -------------------
 Temperature   298.150 Kelvin.  Pressure   1.00000 Atm.
 Atom     1 has atomic number  1 and mass   1.00783

 Molecular mass:    21.01405 amu.
 Principal axes and moments of inertia in atomic units:
                           1         2         3
     Eigenvalues --     0.00000  57.76999  57.76999
           X            1.00000  -0.00000   0.00000
           Y            0.00000   1.00000   0.00000
           Z            0.00000   0.00000   1.00000
 This molecule is a prolate symmetric top.
 Rotational symmetry number  1.
 Rotational temperature (Kelvin)      1.49929
 Rotational constant (GHZ):          31.240117
    2 imaginary frequencies ignored.
 Zero-point vibrational energy      15931.1 (Joules/Mol)
                                    3.80763 (Kcal/Mol)
 Vibrational temperatures:   1916.08  1916.08
          (Kelvin)

 Zero-point correction=                           0.006068 (Hartree/Particle)
 Thermal correction to Energy=                    0.008448
 Thermal correction to Enthalpy=                  0.009392
 Thermal correction to Gibbs Free Energy=        -0.013888
 Sum of electronic and zero-point Energies=           -100.851691
 Sum of electronic and thermal Energies=              -100.849311
 Sum of electronic and thermal Enthalpies=            -100.848366
 Sum of electronic and thermal Free Energies=         -100.871647

                     E (Thermal)             CV                S
                      KCal/Mol        Cal/Mol-Kelvin    Cal/Mol-Kelvin
 Total                    5.301              5.234             48.998
 Electronic               0.000              0.000              1.377
 Translational            0.889              2.981             35.068
 Rotational               0.592              1.987             12.505
 Vibrational              3.820              0.266              0.048

 Normal termination of Gaussian 16 at Fri Aug 22 17:15:46 2025.
