 Gaussian 16, Revision C.01,
 Gaussian 16:  ES64L-G16RevC.01  3-Jul-2019

 -----------------------------------------
 # sp b3lyp/6-311g** Force nosymm scf=(qc)
 -----------------------------------------

 -------------------
 Title Card Required
 -------------------
 Symbolic Z-matrix:
 Charge =  0 Multiplicity = 2

                          Input orientation:
 ---------------------------------------------------------------------
 Center     Atomic      Atomic             Coordinates (Angstroms)
 Number     Number       Type             X           Y           Z
 ---------------------------------------------------------------------
      1          1           0        0.000000    0.000000    0.000000
      2          1           0       -3.700000    0.000000    0.000000
      3          9           0        2.000000    0.000000    0.000000
 ---------------------------------------------------------------------

 SCF Done:  E(UB3LYP) =  -100.787159206     a.u. after   18 cycles

 Alpha  occ. eigenvalues --  -24.68248  -1.14566  -0.47226  -0.39778  -0.39778
 Alpha  occ. eigenvalues --   -0.33308
 Alpha virt. eigenvalues --   -0.13741   0.22339   0.31744   0.88878   0.94842
 Alpha virt. eigenvalues --    0.94842   1.05646   1.24200   1.24200   1.24230
 Alpha virt. eigenvalues --    1.35451   1.35451   1.60465   2.13785   2.29557

  Beta  occ. eigenvalues --  -24.65876  -1.07936  -0.37945  -0.37441  -0.37441
  Beta virt. eigenvalues --   -0.20749  -0.06642   0.22458   0.38006   0.90213
  Beta virt. eigenvalues --    0.95476   0.95476   1.08094   1.21947   1.21947
  Beta virt. eigenvalues --    1.45852   1.46224   1.46224   1.53365   2.11658

 Mulliken charges and spin densities:
               1          2
     1  H    0.192760  -0.744497
     2  H    0.000973   0.998585
     3  F   -0.193733   0.745912
 Sum of Mulliken charges =   0.00000   1.00000

 Dipole moment (field-independent basis, Debye):
    X=             -1.9315    Y=              0.0000    Z=             -0.0000  Tot=              1.9315
 Quadrupole moment (field-independent basis, Debye-Ang):
   XX=            -10.0652   YY=             -7.4873   ZZ=             -7.4873
   XY=              0.0000   XZ=             -0.0000   YZ=             -0.0000

  Exact polarizability:      25.325       0.000       2.062      -0.000      -0.000       2.062
 Approx polarizability:      36.930       0.000       1.947      -0.000      -0.000       1.947

 ******    2 imaginary frequencies (negative Signs) ******

                      1                      2                      3
                      A                      A                      A
 Frequencies --  -1129.3594               -94.7963               480.7666
 Red. masses --      1.0575                 1.0540                 1.0268
 Frc consts  --      0.7947                 0.0056                 0.1398
 IR Inten    --    122.2741                 0.1136                35.1535

                      4
                      A
 Frequencies --    480.7666
 Red. masses --      1.0268
 Frc consts  --      0.1398
 IR Inten    --     35.1535

 - Thermochemistry -
 -------------------
 Temperature   298.150 Kelvin.  Pressure   1.00000 Atm.
 Atom     1 has atomic number  1 and mass   1.00783

 Molecular mass:    21.01405 amu.
 Principal axes and moments of inertia in atomic units:
                           1         2         3
     Eigenvalues --     0.00000 121.09396 121.09396
           X            1.00000  -0.00000   0.00000
           Y            0.00000   1.00000   0.00000
           Z            0.00000   0.00000   1.00000
 This molecule is a prolate symmetric top.
 Rotational symmetry number  1.
 Rotational temperature (Kelvin)      0.71526
 Rotational constant (GHZ):          14.903644
    2 imaginary frequencies ignored.
 Zero-point vibrational energy       5751.2 (Joules/Mol)
                                    1.37458 (Kcal/Mol)
 Warning -- explicit consideration of   2 degrees of freedom as
           vibrations may cause significant error
 Vibrational temperatures:    691.72   691.72
          (Kelvin)

 Zero-point correction=                           0.002191 (Hartree/Particle)
 Thermal correction to Energy=                    0.005028
 Thermal correction to Enthalpy=                  0.005973
 Thermal correction to Gibbs Free Energy=        -0.018657
 Sum of electronic and zero-point Energies=           -100.784969
 Sum of electronic and thermal Energies=              -100.782131
 Sum of electronic and thermal Enthalpies=            -100.781187
 Sum of electronic and thermal Free Energies=         -100.805816

                     E (Thermal)             CV                S
                      KCal/Mol        Cal/Mol-Kelvin    Cal/Mol-Kelvin
 Total                    3.155              7.553             51.837
 Electronic               0.000              0.000              1.377
 Translational            0.889              2.981             35.068
 Rotational               0.592              1.987             13.975
 Vibrational              1.674              2.585              1.416
 Vibration     1          0.837              1.293              0.708
 Vibration     2          0.837              1.293              0.708

 Normal termination of Gaussian 16 at Fri Aug 22 16:57:58 2025.
