 Gaussian 16, Revision C.01,
 Gaussian 16:  ES64L-G16RevC.01  3-Jul-2019

 -----------------------------------------
 # sp b3lyp/6-311g** Force nosymm scf=(qc)
 -----------------------------------------

 -------------------
 Title Card Required
 -------------------
 Symbolic Z-matrix:
 Charge =  0 Multiplicity = 2

                          Input orientation:
 ---------------------------------------------------------------------
 Center     Atomic      Atomic             Coordinates (Angstroms)
 Number     Number       Type             X           Y           Z
 ---------------------------------------------------------------------
      1          1           0        0.000000    0.000000    0.000000
      2          1           0       -2.700000    0.000000    0.000000
      3          9           0        3.350000    0.000000    0.000000
 ---------------------------------------------------------------------

 SCF Done:  E(UB3LYP) =  -100.761651197     a.u. after   26 cycles

 Alpha  occ. eigenvalues --  -24.75140  -1.21120  -0.54261  -0.45559  -0.45559
 Alpha  occ. eigenvalues --   -0.32639
 Alpha virt. eigenvalues --   -0.09115   0.25361   0.34690   0.88134   0.91632
 Alpha virt. eigenvalues --    0.91632   1.02256   1.24948   1.24948   1.26357
 Alpha virt. eigenvalues --    1.42156   1.42156   1.42805   2.15902   2.38105

  Beta  occ. eigenvalues --  -24.72043  -1.12226  -0.42456  -0.42456  -0.33121
  Beta virt. eigenvalues --   -0.25363  -0.08411   0.25178   0.35695   0.93116
  Beta virt. eigenvalues --    0.93116   0.97198   1.06241   1.24376   1.24376
  Beta virt. eigenvalues --    1.25686   1.43277   1.43277   1.43910   2.16494

 Mulliken charges and spin densities:
               1          2
     1  H    0.014447  -0.964995
     2  H    0.001889   0.983134
     3  F   -0.016336   0.981861
 Sum of Mulliken charges =  -0.00000   1.00000

 Dipole moment (field-independent basis, Debye):
    X=             -0.3054    Y=              0.0000    Z=             -0.0000  Tot=              0.3054
 Quadrupole moment (field-independent basis, Debye-Ang):
   XX=             -7.4362   YY=             -7.6476   ZZ=             -7.6476
   XY=             -0.0000   XZ=              0.0000   YZ=              0.0000

  Exact polarizability:      33.699      -0.000       2.023       0.000       0.000       2.023
 Approx polarizability:      26.926      -0.000       1.928       0.000      -0.000       1.928

 ******    2 imaginary frequencies (negative Signs) ******

                      1                      2                      3
                      A                      A                      A
 Frequencies --   -522.4701              -162.1268               188.4344
 Red. masses --      1.0092                 1.1069                 1.0155
 Frc consts  --      0.1623                 0.0171                 0.0212
 IR Inten    --     10.7616                 8.2486                 0.1652

                      4
                      A
 Frequencies --    188.4344
 Red. masses --      1.0155
 Frc consts  --      0.0212
 IR Inten    --      0.1652

 - Thermochemistry -
 -------------------
 Temperature   298.150 Kelvin.  Pressure   1.00000 Atm.
 Atom     1 has atomic number  1 and mass   1.00783

 Molecular mass:    21.01405 amu.
 Principal axes and moments of inertia in atomic units:
                           1         2         3
     Eigenvalues --     0.00000 156.87104 156.87104
           X            1.00000  -0.00000   0.00000
           Y            0.00000   1.00000   0.00000
           Z            0.00000   0.00000   1.00000
 This molecule is a prolate symmetric top.
 Rotational symmetry number  1.
 Rotational temperature (Kelvin)      0.55213
 Rotational constant (GHZ):          11.504617
    2 imaginary frequencies ignored.
 Zero-point vibrational energy       2254.2 (Joules/Mol)
                                    0.53876 (Kcal/Mol)
 Warning -- explicit consideration of   2 degrees of freedom as
           vibrations may cause significant error
 Vibrational temperatures:    271.12   271.12
          (Kelvin)

 Zero-point correction=                           0.000859 (Hartree/Particle)
 Thermal correction to Energy=                    0.004377
 Thermal correction to Enthalpy=                  0.005321
 Thermal correction to Gibbs Free Energy=        -0.021011
 Sum of electronic and zero-point Energies=           -100.760793
 Sum of electronic and thermal Energies=              -100.757274
 Sum of electronic and thermal Enthalpies=            -100.756330
 Sum of electronic and thermal Free Energies=         -100.782662

                     E (Thermal)             CV                S
                      KCal/Mol        Cal/Mol-Kelvin    Cal/Mol-Kelvin
 Total                    2.747              8.680             55.422
 Electronic               0.000              0.000              1.377
 Translational            0.889              2.981             35.068
 Rotational               0.592              1.987             14.490
 Vibrational              1.266              3.712              4.486
 Vibration     1          0.633              1.856              2.243
 Vibration     2          0.633              1.856              2.243

 Normal termination of Gaussian 16 at Fri Aug 22 21:02:12 2025.
