 Gaussian 16, Revision C.01,
 Gaussian 16:  ES64L-G16RevC.01  3-Jul-2019

 -----------------------------------------
 # sp b3lyp/6-311g** Force nosymm scf=(qc)
 -----------------------------------------

 -------------------
 Title Card Required
 -------------------
 Symbolic Z-matrix:
 Charge =  0 Multiplicity = 2

                          Input orientation:
 ---------------------------------------------------------------------
 Center     Atomic      Atomic             Coordinates (Angstroms)
 Number     Number       Type             X           Y           Z
 ---------------------------------------------------------------------
      1          1           0        0.000000    0.000000    0.000000
      2          1           0       -3.750000    0.000000    0.000000
      3          9           0        3.100000    0.000000    0.000000
 ---------------------------------------------------------------------

 SCF Done:  E(UB3LYP) =  -100.760306093     a.u. after   21 cycles

 Alpha  occ. eigenvalues --  -24.74415  -1.20451  -0.53536  -0.44951  -0.44951
 Alpha  occ. eigenvalues --   -0.32444
 Alpha virt. eigenvalues --   -0.07572   0.23958   0.36382   0.89011   0.92076
 Alpha virt. eigenvalues --    0.92076   1.03344   1.25055   1.25055   1.25113
 Alpha virt. eigenvalues --    1.44697   1.44697   1.45003   2.14574   2.40922

  Beta  occ. eigenvalues --  -24.71365  -1.11704  -0.41897  -0.41897  -0.33492
  Beta virt. eigenvalues --   -0.24960  -0.06172   0.23799   0.38093   0.93545
  Beta virt. eigenvalues --    0.93545   0.97820   1.07142   1.23852   1.23852
  Beta virt. eigenvalues --    1.24056   1.46302   1.46495   1.46495   2.14780

 Mulliken charges and spin densities:
               1          2
     1  H    0.030177  -0.965613
     2  H    0.000199   0.998879
     3  F   -0.030377   0.966734
 Sum of Mulliken charges =  -0.00000   1.00000

 Dipole moment (field-independent basis, Debye):
    X=             -0.4873    Y=             -0.0000    Z=             -0.0000  Tot=              0.4873
 Quadrupole moment (field-independent basis, Debye-Ang):
   XX=             -8.1299   YY=             -7.6104   ZZ=             -7.6104
   XY=             -0.0000   XZ=             -0.0000   YZ=              0.0000

  Exact polarizability:      30.432       0.000       2.028      -0.000       0.000       2.028
 Approx polarizability:      29.592      -0.000       1.928      -0.000      -0.000       1.928

 ******    2 imaginary frequencies (negative Signs) ******

                      1                      2                      3
                      A                      A                      A
 Frequencies --   -331.8886               -90.1767               113.6029
 Red. masses --      1.0498                 1.0618                 1.0204
 Frc consts  --      0.0681                 0.0051                 0.0078
 IR Inten    --     32.7641                 0.2629                 0.8605

                      4
                      A
 Frequencies --    113.6029
 Red. masses --      1.0204
 Frc consts  --      0.0078
 IR Inten    --      0.8605

 - Thermochemistry -
 -------------------
 Temperature   298.150 Kelvin.  Pressure   1.00000 Atm.
 Atom     1 has atomic number  1 and mass   1.00783

 Molecular mass:    21.01405 amu.
 Principal axes and moments of inertia in atomic units:
                           1         2         3
     Eigenvalues --     0.00000 186.37243 186.37243
           X            1.00000  -0.00000   0.00000
           Y            0.00000   1.00000   0.00000
           Z            0.00000   0.00000   1.00000
 This molecule is a prolate symmetric top.
 Rotational symmetry number  1.
 Rotational temperature (Kelvin)      0.46474
 Rotational constant (GHZ):           9.683520
    2 imaginary frequencies ignored.
 Zero-point vibrational energy       1359.0 (Joules/Mol)
                                    0.32481 (Kcal/Mol)
 Warning -- explicit consideration of   2 degrees of freedom as
           vibrations may cause significant error
 Vibrational temperatures:    163.45   163.45
          (Kelvin)

 Zero-point correction=                           0.000518 (Hartree/Particle)
 Thermal correction to Energy=                    0.004296
 Thermal correction to Enthalpy=                  0.005240
 Thermal correction to Gibbs Free Energy=        -0.022171
 Sum of electronic and zero-point Energies=           -100.759788
 Sum of electronic and thermal Energies=              -100.756010
 Sum of electronic and thermal Enthalpies=            -100.755066
 Sum of electronic and thermal Free Energies=         -100.782477

                     E (Thermal)             CV                S
                      KCal/Mol        Cal/Mol-Kelvin    Cal/Mol-Kelvin
 Total                    2.696              8.844             57.690
 Electronic               0.000              0.000              1.377
 Translational            0.889              2.981             35.068
 Rotational               0.592              1.987             14.832
 Vibrational              1.214              3.876              6.413
 Vibration     1          0.607              1.938              3.206
 Vibration     2          0.607              1.938              3.206

 Normal termination of Gaussian 16 at Fri Aug 22 19:56:35 2025.
