 Gaussian 16, Revision C.01,
 Gaussian 16:  ES64L-G16RevC.01  3-Jul-2019

 -----------------------------------------
 # sp b3lyp/6-311g** Force nosymm scf=(qc)
 -----------------------------------------

 -------------------
 Title Card Required
 -------------------
 Symbolic Z-matrix:
 Charge =  0 Multiplicity = 2

                          Input orientation:
 ---------------------------------------------------------------------
 Center     Atomic      Atomic             Coordinates (Angstroms)
 Number     Number       Type             X           Y           Z
 ---------------------------------------------------------------------
      1          1           0        0.000000    0.000000    0.000000
      2          1           0       -2.000000    0.000000    0.000000
      3          9           0        1.850000    0.000000    0.000000
 ---------------------------------------------------------------------

 SCF Done:  E(UB3LYP) =  -100.811486590     a.u. after   18 cycles

 Alpha  occ. eigenvalues --  -24.66805  -1.13114  -0.45926  -0.38528  -0.38528
 Alpha  occ. eigenvalues --   -0.36903
 Alpha virt. eigenvalues --   -0.13473   0.23610   0.29914   0.90215   0.95040
 Alpha virt. eigenvalues --    0.95040   1.04931   1.20925   1.20925   1.29113
 Alpha virt. eigenvalues --    1.33896   1.33896   1.66721   2.11115   2.30006

  Beta  occ. eigenvalues --  -24.64698  -1.07283  -0.38337  -0.36465  -0.36465
  Beta virt. eigenvalues --   -0.20653  -0.11048   0.25671   0.31695   0.92422
  Beta virt. eigenvalues --    0.95351   0.95351   1.08331   1.24225   1.24225
  Beta virt. eigenvalues --    1.36254   1.36254   1.40643   1.64005   2.12493

 Mulliken charges and spin densities:
               1          2
     1  H    0.185070  -0.555794
     2  H    0.047659   0.894410
     3  F   -0.232729   0.661384
 Sum of Mulliken charges =   0.00000   1.00000

 Dipole moment (field-independent basis, Debye):
    X=             -2.5742    Y=             -0.0000    Z=             -0.0000  Tot=              2.5742
 Quadrupole moment (field-independent basis, Debye-Ang):
   XX=             -8.8225   YY=             -7.4950   ZZ=             -7.4950
   XY=             -0.0000   XZ=             -0.0000   YZ=              0.0000

  Exact polarizability:      45.042      -0.000       2.098      -0.000       0.000       2.098
 Approx polarizability:      56.173      -0.000       2.004      -0.000      -0.000       2.004

 ******    2 imaginary frequencies (negative Signs) ******

                      1                      2                      3
                      A                      A                      A
 Frequencies --  -1725.5076              -591.5184               712.4000
 Red. masses --      1.0272                 1.0859                 1.0189
 Frc consts  --      1.8020                 0.2239                 0.3047
 IR Inten    --    122.9586                21.9912                22.1859

                      4
                      A
 Frequencies --    712.4000
 Red. masses --      1.0189
 Frc consts  --      0.3047
 IR Inten    --     22.1859

 - Thermochemistry -
 -------------------
 Temperature   298.150 Kelvin.  Pressure   1.00000 Atm.
 Atom     1 has atomic number  1 and mass   1.00783

 Molecular mass:    21.01405 amu.
 Principal axes and moments of inertia in atomic units:
                           1         2         3
     Eigenvalues --     0.00000  60.05591  60.05591
           X            1.00000  -0.00000   0.00000
           Y            0.00000   1.00000   0.00000
           Z            0.00000   0.00000   1.00000
 This molecule is a prolate symmetric top.
 Rotational symmetry number  1.
 Rotational temperature (Kelvin)      1.44222
 Rotational constant (GHZ):          30.051016
    2 imaginary frequencies ignored.
 Zero-point vibrational energy       8522.2 (Joules/Mol)
                                    2.03685 (Kcal/Mol)
 Vibrational temperatures:   1024.98  1024.98
          (Kelvin)

 Zero-point correction=                           0.003246 (Hartree/Particle)
 Thermal correction to Energy=                    0.005822
 Thermal correction to Enthalpy=                  0.006766
 Thermal correction to Gibbs Free Energy=        -0.016806
 Sum of electronic and zero-point Energies=           -100.808241
 Sum of electronic and thermal Energies=              -100.805665
 Sum of electronic and thermal Enthalpies=            -100.804720
 Sum of electronic and thermal Free Energies=         -100.828292

                     E (Thermal)             CV                S
                      KCal/Mol        Cal/Mol-Kelvin    Cal/Mol-Kelvin
 Total                    3.653              6.579             49.611
 Electronic               0.000              0.000              1.377
 Translational            0.889              2.981             35.068
 Rotational               0.592              1.987             12.582
 Vibrational              2.172              1.611              0.583

 Normal termination of Gaussian 16 at Fri Aug 22 16:46:44 2025.
