 Gaussian 16, Revision C.01,
 Gaussian 16:  ES64L-G16RevC.01  3-Jul-2019

 -----------------------------------------
 # sp b3lyp/6-311g** Force nosymm scf=(qc)
 -----------------------------------------

 -------------------
 Title Card Required
 -------------------
 Symbolic Z-matrix:
 Charge =  0 Multiplicity = 2

                          Input orientation:
 ---------------------------------------------------------------------
 Center     Atomic      Atomic             Coordinates (Angstroms)
 Number     Number       Type             X           Y           Z
 ---------------------------------------------------------------------
      1          1           0        0.000000    0.000000    0.000000
      2          1           0       -1.350000    0.000000    0.000000
      3          9           0        2.750000    0.000000    0.000000
 ---------------------------------------------------------------------

 SCF Done:  E(UB3LYP) =  -100.845804764     a.u. after  123 cycles

 Alpha  occ. eigenvalues --  -24.76303  -1.22166  -0.55334  -0.46657  -0.46537
 Alpha  occ. eigenvalues --   -0.35025
 Alpha virt. eigenvalues --   -0.07175   0.23964   0.32504   0.86707   0.90837
 Alpha virt. eigenvalues --    0.92859   1.05692   1.13343   1.16385   1.16392
 Alpha virt. eigenvalues --    1.46960   1.46967   1.94563   2.27234   2.52482

  Beta  occ. eigenvalues --  -24.73173  -1.13179  -0.43541  -0.43401  -0.34908
  Beta virt. eigenvalues --   -0.26248  -0.07014   0.24080   0.32728   0.92321
  Beta virt. eigenvalues --    0.93616   0.96682   1.09350   1.13785   1.16480
  Beta virt. eigenvalues --    1.16486   1.47047   1.47053   1.94689   2.27379

 Mulliken charges and spin densities:
               1          2
     1  H   -0.000659  -0.020523
     2  H    0.001209   0.029757
     3  F   -0.000551   0.990767
 Sum of Mulliken charges =   0.00000   1.00000

 Dipole moment (field-independent basis, Debye):
    X=             -0.0530    Y=              0.0021    Z=             -0.0010  Tot=              0.0531
 Quadrupole moment (field-independent basis, Debye-Ang):
   XX=             -6.1411   YY=             -7.1727   ZZ=             -7.5218
   XY=              0.3568   XZ=             -0.1776   YZ=             -0.2310

  Exact polarizability:     110.041      -0.021       2.319       0.177      -0.121       2.138
 Approx polarizability:      44.141       0.083       2.395      -0.042      -0.155       2.161

 ******    2 imaginary frequencies (negative Signs) ******

                      1                      2                      3
                      A                      A                      A
 Frequencies --  -1331.7275              -211.5023              1338.9992
 Red. masses --      1.0090                 1.1070                 1.0116
 Frc consts  --      1.0544                 0.0292                 1.0686
 IR Inten    --   1856.6440                74.5696                 1.0370

                      4
                      A
 Frequencies --   1342.8316
 Red. masses --      1.0116
 Frc consts  --      1.0747
 IR Inten    --      0.8536

 - Thermochemistry -
 -------------------
 Temperature   298.150 Kelvin.  Pressure   1.00000 Atm.
 Atom     1 has atomic number  1 and mass   1.00783

 Molecular mass:    21.01405 amu.
 Principal axes and moments of inertia in atomic units:
                           1         2         3
     Eigenvalues --     0.00000  79.61769  79.61769
           X            1.00000  -0.00000   0.00000
           Y            0.00000   1.00000   0.00000
           Z            0.00000   0.00000   1.00000
 This molecule is a prolate symmetric top.
 Rotational symmetry number  1.
 Rotational temperature (Kelvin)      1.08787
 Rotational constant (GHZ):          22.667591
    2 imaginary frequencies ignored.
 Zero-point vibrational energy      16040.9 (Joules/Mol)
                                    3.83387 (Kcal/Mol)
 Vibrational temperatures:   1926.52  1932.04
          (Kelvin)

 Zero-point correction=                           0.006110 (Hartree/Particle)
 Thermal correction to Energy=                    0.008489
 Thermal correction to Enthalpy=                  0.009433
 Thermal correction to Gibbs Free Energy=        -0.014149
 Sum of electronic and zero-point Energies=           -100.839695
 Sum of electronic and thermal Energies=              -100.837316
 Sum of electronic and thermal Enthalpies=            -100.836372
 Sum of electronic and thermal Free Energies=         -100.859954

                     E (Thermal)             CV                S
                      KCal/Mol        Cal/Mol-Kelvin    Cal/Mol-Kelvin
 Total                    5.327              5.226             49.634
 Electronic               0.000              0.000              1.377
 Translational            0.889              2.981             35.068
 Rotational               0.592              1.987             13.142
 Vibrational              3.846              0.258              0.046

 Normal termination of Gaussian 16 at Fri Aug 22 18:32:33 2025.
