 Gaussian 16, Revision C.01,
 Gaussian 16:  ES64L-G16RevC.01  3-Jul-2019

 -----------------------------------------
 # sp b3lyp/6-311g** Force nosymm scf=(qc)
 -----------------------------------------

 -------------------
 Title Card Required
 -------------------
 Symbolic Z-matrix:
 Charge =  0 Multiplicity = 2

                          Input orientation:
 ---------------------------------------------------------------------
 Center     Atomic      Atomic             Coordinates (Angstroms)
 Number     Number       Type             X           Y           Z
 ---------------------------------------------------------------------
      1          1           0        0.000000    0.000000    0.000000
      2          1           0       -3.350000    0.000000    0.000000
      3          9           0        1.300000    0.000000    0.000000
 ---------------------------------------------------------------------

 SCF Done:  E(UB3LYP) =  -100.901298747     a.u. after    7 cycles

 Alpha  occ. eigenvalues --  -24.64356  -1.11102  -0.46053  -0.37056  -0.37056
 Alpha  occ. eigenvalues --   -0.34054
 Alpha virt. eigenvalues --   -0.08887   0.21629   0.28476   0.93017   0.93017
 Alpha virt. eigenvalues --    1.02067   1.21554   1.23464   1.23464   1.23635
 Alpha virt. eigenvalues --    1.33815   1.33815   1.70728   2.13822   2.24755

  Beta  occ. eigenvalues --  -24.64347  -1.11078  -0.46027  -0.37048  -0.37048
  Beta virt. eigenvalues --   -0.09948  -0.05807   0.25277   0.38248   0.93015
  Beta virt. eigenvalues --    0.93015   1.02093   1.21690   1.33789   1.33789
  Beta virt. eigenvalues --    1.45944   1.46443   1.46443   1.70772   2.24544

 Mulliken charges and spin densities:
               1          2
     1  H    0.357390  -0.000705
     2  H    0.002033   0.997761
     3  F   -0.359423   0.002944
 Sum of Mulliken charges =   0.00000   1.00000

 Dipole moment (field-independent basis, Debye):
    X=             -2.4218    Y=             -0.0000    Z=             -0.0000  Tot=              2.4218
 Quadrupole moment (field-independent basis, Debye-Ang):
   XX=             -9.1617   YY=             -7.1998   ZZ=             -7.1998
   XY=             -0.0000   XZ=             -0.0000   YZ=             -0.0000

  Exact polarizability:      11.679      -0.000       2.281       0.000      -0.000       2.281
 Approx polarizability:      17.772       0.000       2.225       0.000       0.000       2.225

 ******    2 imaginary frequencies (negative Signs) ******

                      1                      2                      3
                      A                      A                      A
 Frequencies --   -614.5522               -76.2214              1157.7887
 Red. masses --      1.0554                 1.0561                 1.0322
 Frc consts  --      0.2349                 0.0036                 0.8152
 IR Inten    --     62.9049                 0.0620               134.7123

                      4
                      A
 Frequencies --   1157.7887
 Red. masses --      1.0322
 Frc consts  --      0.8152
 IR Inten    --    134.7123

 - Thermochemistry -
 -------------------
 Temperature   298.150 Kelvin.  Pressure   1.00000 Atm.
 Atom     1 has atomic number  1 and mass   1.00783

 Molecular mass:    21.01405 amu.
 Principal axes and moments of inertia in atomic units:
                           1         2         3
     Eigenvalues --     0.00000  77.79117  77.79117
           X            1.00000  -0.00000   0.00000
           Y            0.00000   1.00000   0.00000
           Z            0.00000   0.00000   1.00000
 This molecule is a prolate symmetric top.
 Rotational symmetry number  1.
 Rotational temperature (Kelvin)      1.11342
 Rotational constant (GHZ):          23.199821
    2 imaginary frequencies ignored.
 Zero-point vibrational energy      13850.2 (Joules/Mol)
                                    3.31028 (Kcal/Mol)
 Vibrational temperatures:   1665.80  1665.80
          (Kelvin)

 Zero-point correction=                           0.005275 (Hartree/Particle)
 Thermal correction to Energy=                    0.007675
 Thermal correction to Enthalpy=                  0.008620
 Thermal correction to Gibbs Free Energy=        -0.014966
 Sum of electronic and zero-point Energies=           -100.896023
 Sum of electronic and thermal Energies=              -100.893623
 Sum of electronic and thermal Enthalpies=            -100.892679
 Sum of electronic and thermal Free Energies=         -100.916265

                     E (Thermal)             CV                S
                      KCal/Mol        Cal/Mol-Kelvin    Cal/Mol-Kelvin
 Total                    4.816              5.436             49.640
 Electronic               0.000              0.000              1.377
 Translational            0.889              2.981             35.068
 Rotational               0.592              1.987             13.096
 Vibrational              3.335              0.468              0.098

 Normal termination of Gaussian 16 at Fri Aug 22 16:15:58 2025.
