 Gaussian 16, Revision C.01,
 Gaussian 16:  ES64L-G16RevC.01  3-Jul-2019

 -----------------------------------------
 # sp b3lyp/6-311g** Force nosymm scf=(qc)
 -----------------------------------------

 -------------------
 Title Card Required
 -------------------
 Symbolic Z-matrix:
 Charge =  0 Multiplicity = 2

                          Input orientation:
 ---------------------------------------------------------------------
 Center     Atomic      Atomic             Coordinates (Angstroms)
 Number     Number       Type             X           Y           Z
 ---------------------------------------------------------------------
      1          1           0        0.000000    0.000000    0.000000
      2          1           0       -1.800000    0.000000    0.000000
      3          9           0        3.100000    0.000000    0.000000
 ---------------------------------------------------------------------

 SCF Done:  E(UB3LYP) =  -100.787240126     a.u. after   27 cycles

 Alpha  occ. eigenvalues --  -24.74899  -1.20898  -0.54022  -0.45362  -0.45362
 Alpha  occ. eigenvalues --   -0.33813
 Alpha virt. eigenvalues --   -0.11579   0.25384   0.30799   0.89201   0.91761
 Alpha virt. eigenvalues --    0.91761   1.03332   1.09396   1.23781   1.23781
 Alpha virt. eigenvalues --    1.36712   1.36712   1.60646   2.14147   2.39670

  Beta  occ. eigenvalues --  -24.71827  -1.12080  -0.42285  -0.42285  -0.33767
  Beta virt. eigenvalues --   -0.25340  -0.11263   0.25728   0.31144   0.93235
  Beta virt. eigenvalues --    0.93235   0.98031   1.07169   1.09679   1.23823
  Beta virt. eigenvalues --    1.23823   1.37098   1.37098   1.61027   2.15088

 Mulliken charges and spin densities:
               1          2
     1  H    0.007108  -0.705391
     2  H    0.015430   0.731660
     3  F   -0.022538   0.973731
 Sum of Mulliken charges =   0.00000   1.00000

 Dipole moment (field-independent basis, Debye):
    X=             -0.4895    Y=              0.0000    Z=             -0.0000  Tot=              0.4895
 Quadrupole moment (field-independent basis, Debye-Ang):
   XX=             -6.7703   YY=             -7.7416   ZZ=             -7.7416
   XY=             -0.0000   XZ=              0.0000   YZ=             -0.0000

  Exact polarizability:      57.842      -0.000       2.012       0.000       0.000       2.012
 Approx polarizability:      59.090      -0.000       1.955       0.000      -0.000       1.955

 ******    2 imaginary frequencies (negative Signs) ******

                      1                      2                      3
                      A                      A                      A
 Frequencies --  -1737.3138              -204.2062               763.6119
 Red. masses --      1.0079                 1.1084                 1.0127
 Frc consts  --      1.7923                 0.0272                 0.3479
 IR Inten    --     60.5682                21.7754                 0.0008

                      4
                      A
 Frequencies --    763.6119
 Red. masses --      1.0127
 Frc consts  --      0.3479
 IR Inten    --      0.0008

 - Thermochemistry -
 -------------------
 Temperature   298.150 Kelvin.  Pressure   1.00000 Atm.
 Atom     1 has atomic number  1 and mass   1.00783

 Molecular mass:    21.01405 amu.
 Principal axes and moments of inertia in atomic units:
                           1         2         3
     Eigenvalues --     0.00000 109.95182 109.95182
           X            1.00000  -0.00000   0.00000
           Y            0.00000   1.00000   0.00000
           Z            0.00000   0.00000   1.00000
 This molecule is a prolate symmetric top.
 Rotational symmetry number  1.
 Rotational temperature (Kelvin)      0.78774
 Rotational constant (GHZ):          16.413927
    2 imaginary frequencies ignored.
 Zero-point vibrational energy       9134.8 (Joules/Mol)
                                    2.18328 (Kcal/Mol)
 Vibrational temperatures:   1098.67  1098.67
          (Kelvin)

 Zero-point correction=                           0.003479 (Hartree/Particle)
 Thermal correction to Energy=                    0.006019
 Thermal correction to Enthalpy=                  0.006963
 Thermal correction to Gibbs Free Energy=        -0.017130
 Sum of electronic and zero-point Energies=           -100.783761
 Sum of electronic and thermal Energies=              -100.781221
 Sum of electronic and thermal Enthalpies=            -100.780277
 Sum of electronic and thermal Free Energies=         -100.804370

                     E (Thermal)             CV                S
                      KCal/Mol        Cal/Mol-Kelvin    Cal/Mol-Kelvin
 Total                    3.777              6.393             50.707
 Electronic               0.000              0.000              1.377
 Translational            0.889              2.981             35.068
 Rotational               0.592              1.987             13.784
 Vibrational              2.296              1.425              0.478

 Normal termination of Gaussian 16 at Fri Aug 22 19:54:12 2025.
