 Gaussian 16, Revision C.01,
 Gaussian 16:  ES64L-G16RevC.01  3-Jul-2019

 -----------------------------------------
 # sp b3lyp/6-311g** Force nosymm scf=(qc)
 -----------------------------------------

 -------------------
 Title Card Required
 -------------------
 Symbolic Z-matrix:
 Charge =  0 Multiplicity = 2

                          Input orientation:
 ---------------------------------------------------------------------
 Center     Atomic      Atomic             Coordinates (Angstroms)
 Number     Number       Type             X           Y           Z
 ---------------------------------------------------------------------
      1          1           0        0.000000    0.000000    0.000000
      2          1           0       -2.150000    0.000000    0.000000
      3          9           0        2.950000    0.000000    0.000000
 ---------------------------------------------------------------------

 SCF Done:  E(UB3LYP) =  -100.771389931     a.u. after   23 cycles

 Alpha  occ. eigenvalues --  -24.74064  -1.20120  -0.53180  -0.44652  -0.44652
 Alpha  occ. eigenvalues --   -0.33578
 Alpha virt. eigenvalues --   -0.11553   0.25477   0.32483   0.89787   0.92292
 Alpha virt. eigenvalues --    0.92292   1.04281   1.22066   1.24299   1.24299
 Alpha virt. eigenvalues --    1.37534   1.37534   1.45236   2.12997   2.35488

  Beta  occ. eigenvalues --  -24.71042  -1.11460  -0.41628  -0.41628  -0.33936
  Beta virt. eigenvalues --   -0.24808  -0.10674   0.25941   0.33242   0.93751
  Beta virt. eigenvalues --    0.93751   0.98481   1.08198   1.21737   1.23830
  Beta virt. eigenvalues --    1.23830   1.38944   1.38944   1.46398   2.14206

 Mulliken charges and spin densities:
               1          2
     1  H    0.024948  -0.872017
     2  H    0.012719   0.914525
     3  F   -0.037667   0.957492
 Sum of Mulliken charges =  -0.00000   1.00000

 Dipole moment (field-independent basis, Debye):
    X=             -0.7003    Y=             -0.0000    Z=             -0.0000  Tot=              0.7003
 Quadrupole moment (field-independent basis, Debye-Ang):
   XX=             -7.6488   YY=             -7.6870   ZZ=             -7.6870
   XY=             -0.0000   XZ=             -0.0000   YZ=              0.0000

  Exact polarizability:      55.148      -0.000       2.006      -0.000      -0.000       2.006
 Approx polarizability:      49.519      -0.000       1.924      -0.000       0.000       1.924

 ******    2 imaginary frequencies (negative Signs) ******

                      1                      2                      3
                      A                      A                      A
 Frequencies --  -1119.5845              -255.3140               436.0154
 Red. masses --      1.0082                 1.1080                 1.0146
 Frc consts  --      0.7446                 0.0426                 0.1136
 IR Inten    --     29.3906                28.9517                 0.3459

                      4
                      A
 Frequencies --    436.0154
 Red. masses --      1.0146
 Frc consts  --      0.1136
 IR Inten    --      0.3459

 - Thermochemistry -
 -------------------
 Temperature   298.150 Kelvin.  Pressure   1.00000 Atm.
 Atom     1 has atomic number  1 and mass   1.00783

 Molecular mass:    21.01405 amu.
 Principal axes and moments of inertia in atomic units:
                           1         2         3
     Eigenvalues --     0.00000 113.74522 113.74522
           X            1.00000  -0.00000   0.00000
           Y            0.00000   1.00000   0.00000
           Z            0.00000   0.00000   1.00000
 This molecule is a prolate symmetric top.
 Rotational symmetry number  1.
 Rotational temperature (Kelvin)      0.76147
 Rotational constant (GHZ):          15.866523
    2 imaginary frequencies ignored.
 Zero-point vibrational energy       5215.9 (Joules/Mol)
                                    1.24663 (Kcal/Mol)
 Warning -- explicit consideration of   2 degrees of freedom as
           vibrations may cause significant error
 Vibrational temperatures:    627.33   627.33
          (Kelvin)

 Zero-point correction=                           0.001987 (Hartree/Particle)
 Thermal correction to Energy=                    0.004899
 Thermal correction to Enthalpy=                  0.005843
 Thermal correction to Gibbs Free Energy=        -0.018852
 Sum of electronic and zero-point Energies=           -100.769403
 Sum of electronic and thermal Energies=              -100.766491
 Sum of electronic and thermal Enthalpies=            -100.765547
 Sum of electronic and thermal Free Energies=         -100.790242

                     E (Thermal)             CV                S
                      KCal/Mol        Cal/Mol-Kelvin    Cal/Mol-Kelvin
 Total                    3.074              7.751             51.975
 Electronic               0.000              0.000              1.377
 Translational            0.889              2.981             35.068
 Rotational               0.592              1.987             13.851
 Vibrational              1.593              2.783              1.678
 Vibration     1          0.796              1.392              0.839
 Vibration     2          0.796              1.392              0.839

 Normal termination of Gaussian 16 at Fri Aug 22 19:17:30 2025.
