 Gaussian 16, Revision C.01,
 Gaussian 16:  ES64L-G16RevC.01  3-Jul-2019

 -----------------------------------------
 # sp b3lyp/6-311g** Force nosymm scf=(qc)
 -----------------------------------------

 -------------------
 Title Card Required
 -------------------
 Symbolic Z-matrix:
 Charge =  0 Multiplicity = 2

                          Input orientation:
 ---------------------------------------------------------------------
 Center     Atomic      Atomic             Coordinates (Angstroms)
 Number     Number       Type             X           Y           Z
 ---------------------------------------------------------------------
      1          1           0        0.000000    0.000000    0.000000
      2          1           0       -2.000000    0.000000    0.000000
      3          9           0        1.300000    0.000000    0.000000
 ---------------------------------------------------------------------

 SCF Done:  E(UB3LYP) =  -100.904410516     a.u. after    8 cycles

 Alpha  occ. eigenvalues --  -24.63675  -1.10719  -0.46294  -0.36810  -0.36518
 Alpha  occ. eigenvalues --   -0.36518
 Alpha virt. eigenvalues --   -0.06350   0.23522   0.27733   0.93577   0.93577
 Alpha virt. eigenvalues --    1.02264   1.10081   1.20332   1.20332   1.34861
 Alpha virt. eigenvalues --    1.34861   1.40867   1.70340   2.11587   2.29599

  Beta  occ. eigenvalues --  -24.63437  -1.10109  -0.45151  -0.36298  -0.36298
  Beta virt. eigenvalues --   -0.15717  -0.02653   0.27270   0.33432   0.93552
  Beta virt. eigenvalues --    0.93552   1.02908   1.16796   1.33471   1.33471
  Beta virt. eigenvalues --    1.39608   1.39608   1.51571   1.70973   2.22931

 Mulliken charges and spin densities:
               1          2
     1  H    0.332868  -0.026359
     2  H    0.032864   0.953986
     3  F   -0.365732   0.072373
 Sum of Mulliken charges =  -0.00000   1.00000

 Dipole moment (field-independent basis, Debye):
    X=             -2.7572    Y=             -0.0000    Z=             -0.0000  Tot=              2.7572
 Quadrupole moment (field-independent basis, Debye-Ang):
   XX=             -8.4681   YY=             -7.1621   ZZ=             -7.1621
   XY=             -0.0000   XZ=             -0.0000   YZ=              0.0000

  Exact polarizability:      18.970       0.000       2.331      -0.000      -0.000       2.331
 Approx polarizability:      25.028       0.000       2.283       0.000      -0.000       2.283

 ******    2 imaginary frequencies (negative Signs) ******

                      1                      2                      3
                      A                      A                      A
 Frequencies --  -1095.0436              -145.0874              1118.7379
 Red. masses --      1.0276                 1.0855                 1.0239
 Frc consts  --      0.7260                 0.0135                 0.7550
 IR Inten    --    214.4665                 3.2380                95.9156

                      4
                      A
 Frequencies --   1118.7379
 Red. masses --      1.0239
 Frc consts  --      0.7550
 IR Inten    --     95.9156

 - Thermochemistry -
 -------------------
 Temperature   298.150 Kelvin.  Pressure   1.00000 Atm.
 Atom     1 has atomic number  1 and mass   1.00783

 Molecular mass:    21.01405 amu.
 Principal axes and moments of inertia in atomic units:
                           1         2         3
     Eigenvalues --     0.00000  41.62317  41.62317
           X            1.00000  -0.00000   0.00000
           Y            0.00000   1.00000   0.00000
           Z            0.00000   0.00000   1.00000
 This molecule is a prolate symmetric top.
 Rotational symmetry number  1.
 Rotational temperature (Kelvin)      2.08091
 Rotational constant (GHZ):          43.359057
    2 imaginary frequencies ignored.
 Zero-point vibrational energy      13383.1 (Joules/Mol)
                                    3.19863 (Kcal/Mol)
 Vibrational temperatures:   1609.61  1609.61
          (Kelvin)

 Zero-point correction=                           0.005097 (Hartree/Particle)
 Thermal correction to Energy=                    0.007504
 Thermal correction to Enthalpy=                  0.008448
 Thermal correction to Gibbs Free Energy=        -0.014555
 Sum of electronic and zero-point Energies=           -100.899313
 Sum of electronic and thermal Energies=              -100.896906
 Sum of electronic and thermal Enthalpies=            -100.895962
 Sum of electronic and thermal Free Energies=         -100.918965

                     E (Thermal)             CV                S
                      KCal/Mol        Cal/Mol-Kelvin    Cal/Mol-Kelvin
 Total                    4.709              5.497             48.414
 Electronic               0.000              0.000              1.377
 Translational            0.889              2.981             35.068
 Rotational               0.592              1.987             11.853
 Vibrational              3.228              0.529              0.115

 Normal termination of Gaussian 16 at Fri Aug 22 16:15:03 2025.
