 Gaussian 16, Revision C.01,
 Gaussian 16:  ES64L-G16RevC.01  3-Jul-2019

 -----------------------------------------
 # sp b3lyp/6-311g** Force nosymm scf=(qc)
 -----------------------------------------

 -------------------
 Title Card Required
 -------------------
 Symbolic Z-matrix:
 Charge =  0 Multiplicity = 2

                          Input orientation:
 ---------------------------------------------------------------------
 Center     Atomic      Atomic             Coordinates (Angstroms)
 Number     Number       Type             X           Y           Z
 ---------------------------------------------------------------------
      1          1           0        0.000000    0.000000    0.000000
      2          1           0       -1.150000    0.000000    0.000000
      3          9           0        1.800000    0.000000    0.000000
 ---------------------------------------------------------------------

 SCF Done:  E(UB3LYP) =  -100.891649081     a.u. after   14 cycles

 Alpha  occ. eigenvalues --  -24.70808  -1.17271  -0.51321  -0.42093  -0.42093
 Alpha  occ. eigenvalues --   -0.40189
 Alpha virt. eigenvalues --   -0.02696   0.21082   0.33486   0.91750   0.91750
 Alpha virt. eigenvalues --    0.92675   1.06968   1.09135   1.09135   1.48786
 Alpha virt. eigenvalues --    1.54360   1.54360   2.12614   2.28320   2.54560

  Beta  occ. eigenvalues --  -24.68188  -1.09932  -0.40479  -0.39508  -0.39508
  Beta virt. eigenvalues --   -0.24313  -0.00610   0.22397   0.34211   0.92789
  Beta virt. eigenvalues --    0.92789   0.99124   1.09795   1.11157   1.11157
  Beta virt. eigenvalues --    1.52351   1.55561   1.55561   2.14871   2.30387

 Mulliken charges and spin densities:
               1          2
     1  H    0.081338  -0.130541
     2  H    0.057605   0.314399
     3  F   -0.138943   0.816142
 Sum of Mulliken charges =   0.00000   1.00000

 Dipole moment (field-independent basis, Debye):
    X=             -1.5240    Y=              0.0000    Z=              0.0000  Tot=              1.5240
 Quadrupole moment (field-independent basis, Debye-Ang):
   XX=             -7.1579   YY=             -7.2696   ZZ=             -7.2696
   XY=              0.0000   XZ=              0.0000   YZ=              0.0000

  Exact polarizability:      37.489       0.000       2.239       0.000       0.000       2.239
 Approx polarizability:      55.638      -0.000       2.226      -0.000      -0.000       2.226

 ******    1 imaginary frequencies (negative Signs) ******

                      1                      2                      3
                      A                      A                      A
 Frequencies --  -1634.7961               339.2058              1362.0385
 Red. masses --      1.0250                 1.0885                 1.0134
 Frc consts  --      1.6139                 0.0738                 1.1077
 IR Inten    --   1139.7216                22.5327                 0.8137

                      4
                      A
 Frequencies --   1362.0385
 Red. masses --      1.0134
 Frc consts  --      1.1077
 IR Inten    --      0.8137

 - Thermochemistry -
 -------------------
 Temperature   298.150 Kelvin.  Pressure   1.00000 Atm.
 Atom     1 has atomic number  1 and mass   1.00783

 Molecular mass:    21.01405 amu.
 Principal axes and moments of inertia in atomic units:
                           1         2         3
     Eigenvalues --     0.00000  39.08672  39.08672
           X            1.00000  -0.00000   0.00000
           Y            0.00000   1.00000   0.00000
           Z            0.00000   0.00000   1.00000
 This molecule is a prolate symmetric top.
 Rotational symmetry number  1.
 Rotational temperature (Kelvin)      2.21594
 Rotational constant (GHZ):          46.172751
    1 imaginary frequencies ignored.
 Zero-point vibrational energy      18322.5 (Joules/Mol)
                                    4.37918 (Kcal/Mol)
 Warning -- explicit consideration of   1 degrees of freedom as
           vibrations may cause significant error
 Vibrational temperatures:    488.04  1959.67  1959.67
          (Kelvin)

 Zero-point correction=                           0.006979 (Hartree/Particle)
 Thermal correction to Energy=                    0.009730
 Thermal correction to Enthalpy=                  0.010674
 Thermal correction to Gibbs Free Energy=        -0.012813
 Sum of electronic and zero-point Energies=           -100.884670
 Sum of electronic and thermal Energies=              -100.881919
 Sum of electronic and thermal Enthalpies=            -100.880975
 Sum of electronic and thermal Free Energies=         -100.904462

                     E (Thermal)             CV                S
                      KCal/Mol        Cal/Mol-Kelvin    Cal/Mol-Kelvin
 Total                    6.106              6.806             49.432
 Electronic               0.000              0.000              1.377
 Translational            0.889              2.981             35.068
 Rotational               0.592              1.987             11.728
 Vibrational              4.624              1.838              1.258
 Vibration     1          0.719              1.597              1.216

 Normal termination of Gaussian 16 at Fri Aug 22 16:42:42 2025.
