 Gaussian 16, Revision C.01,
 Gaussian 16:  ES64L-G16RevC.01  3-Jul-2019

 -----------------------------------------
 # sp b3lyp/6-311g** Force nosymm scf=(qc)
 -----------------------------------------

 -------------------
 Title Card Required
 -------------------
 Symbolic Z-matrix:
 Charge =  0 Multiplicity = 2

                          Input orientation:
 ---------------------------------------------------------------------
 Center     Atomic      Atomic             Coordinates (Angstroms)
 Number     Number       Type             X           Y           Z
 ---------------------------------------------------------------------
      1          1           0        0.000000    0.000000    0.000000
      2          1           0       -1.550000    0.000000    0.000000
      3          9           0        3.900000    0.000000    0.000000
 ---------------------------------------------------------------------

 SCF Done:  E(UB3LYP) =  -100.812608477     a.u. after   84 cycles

 Alpha  occ. eigenvalues --  -24.76226  -1.22128  -0.55332  -0.46507  -0.46488
 Alpha  occ. eigenvalues --   -0.33432
 Alpha virt. eigenvalues --   -0.10069   0.25189   0.30489   0.86035   0.90912
 Alpha virt. eigenvalues --    0.91316   1.00877   1.06879   1.21431   1.21432
 Alpha virt. eigenvalues --    1.40381   1.40383   1.78038   2.20726   2.44904

  Beta  occ. eigenvalues --  -24.73072  -1.13056  -0.43345  -0.43325  -0.33429
  Beta virt. eigenvalues --   -0.25982  -0.10084   0.25184   0.30506   0.92413
  Beta virt. eigenvalues --    0.92796   0.95502   1.05014   1.06883   1.21427
  Beta virt. eigenvalues --    1.21429   1.40377   1.40378   1.78050   2.20774

 Mulliken charges and spin densities:
               1          2
     1  H    0.001028  -0.335220
     2  H   -0.001911   0.335165
     3  F    0.000883   1.000055
 Sum of Mulliken charges =   0.00000   1.00000

 Dipole moment (field-independent basis, Debye):
    X=              0.0240    Y=             -0.0000    Z=             -0.0000  Tot=              0.0240
 Quadrupole moment (field-independent basis, Debye-Ang):
   XX=             -6.3923   YY=             -7.7651   ZZ=             -6.9009
   XY=             -0.0000   XZ=             -0.0001   YZ=              0.0138

  Exact polarizability:      23.043      -0.000       2.034      -0.000       0.007       2.496
 Approx polarizability:      42.201      -0.000       2.019      -0.000       0.009       2.602

 ******    2 imaginary frequencies (negative Signs) ******

                      1                      2                      3
                      A                      A                      A
 Frequencies --  -2127.7720               -54.0805              1138.2011
 Red. masses --      1.0078                 1.1085                 1.0105
 Frc consts  --      2.6883                 0.0019                 0.7713
 IR Inten    --      0.0175                 0.0440                 0.0017

                      4
                      A
 Frequencies --   1139.8639
 Red. masses --      1.0105
 Frc consts  --      0.7736
 IR Inten    --      0.0003

 - Thermochemistry -
 -------------------
 Temperature   298.150 Kelvin.  Pressure   1.00000 Atm.
 Atom     1 has atomic number  1 and mass   1.00783

 Molecular mass:    21.01405 amu.
 Principal axes and moments of inertia in atomic units:
                           1         2         3
     Eigenvalues --     0.00000 146.55074 146.55074
           X            1.00000  -0.00000   0.00000
           Y            0.00000   1.00000   0.00000
           Z            0.00000   0.00000   1.00000
 This molecule is a prolate symmetric top.
 Rotational symmetry number  1.
 Rotational temperature (Kelvin)      0.59102
 Rotational constant (GHZ):          12.314787
    2 imaginary frequencies ignored.
 Zero-point vibrational energy      13625.9 (Joules/Mol)
                                    3.25666 (Kcal/Mol)
 Vibrational temperatures:   1637.62  1640.01
          (Kelvin)

 Zero-point correction=                           0.005190 (Hartree/Particle)
 Thermal correction to Energy=                    0.007593
 Thermal correction to Enthalpy=                  0.008537
 Thermal correction to Gibbs Free Energy=        -0.015650
 Sum of electronic and zero-point Energies=           -100.807419
 Sum of electronic and thermal Energies=              -100.805015
 Sum of electronic and thermal Enthalpies=            -100.804071
 Sum of electronic and thermal Free Energies=         -100.828259

                     E (Thermal)             CV                S
                      KCal/Mol        Cal/Mol-Kelvin    Cal/Mol-Kelvin
 Total                    4.765              5.464             50.906
 Electronic               0.000              0.000              1.377
 Translational            0.889              2.981             35.068
 Rotational               0.592              1.987             14.355
 Vibrational              3.283              0.496              0.106

 Normal termination of Gaussian 16 at Sat Aug 23 01:19:11 2025.
