 Gaussian 16, Revision C.01,
 Gaussian 16:  ES64L-G16RevC.01  3-Jul-2019

 -----------------------------------------
 # sp b3lyp/6-311g** Force nosymm scf=(qc)
 -----------------------------------------

 -------------------
 Title Card Required
 -------------------
 Symbolic Z-matrix:
 Charge =  0 Multiplicity = 2

                          Input orientation:
 ---------------------------------------------------------------------
 Center     Atomic      Atomic             Coordinates (Angstroms)
 Number     Number       Type             X           Y           Z
 ---------------------------------------------------------------------
      1          1           0        0.000000    0.000000    0.000000
      2          1           0       -1.400000    0.000000    0.000000
      3          9           0        0.850000    0.000000    0.000000
 ---------------------------------------------------------------------

 SCF Done:  E(UB3LYP) =  -100.961043625     a.u. after    5 cycles

 Alpha  occ. eigenvalues --  -24.63597  -1.20982  -0.56470  -0.39994  -0.39994
 Alpha  occ. eigenvalues --   -0.36603
 Alpha virt. eigenvalues --    0.12290   0.20740   0.43672   0.93899   0.93899
 Alpha virt. eigenvalues --    0.97154   1.14294   1.14294   1.30162   1.46041
 Alpha virt. eigenvalues --    1.46041   1.55117   2.09804   2.20308   2.80266

  Beta  occ. eigenvalues --  -24.63355  -1.20353  -0.54860  -0.39789  -0.39789
  Beta virt. eigenvalues --   -0.14633   0.13895   0.27074   0.48046   0.94208
  Beta virt. eigenvalues --    0.94208   0.97657   1.24798   1.24798   1.36866
  Beta virt. eigenvalues --    1.51669   1.51669   1.60668   2.14479   2.34559

 Mulliken charges and spin densities:
               1          2
     1  H    0.264570   0.007794
     2  H    0.021796   0.938279
     3  F   -0.286366   0.053927
 Sum of Mulliken charges =   0.00000   1.00000

 Dipole moment (field-independent basis, Debye):
    X=             -1.9436    Y=              0.0000    Z=             -0.0000  Tot=              1.9436
 Quadrupole moment (field-independent basis, Debye-Ang):
   XX=             -7.4015   YY=             -6.6903   ZZ=             -6.6903
   XY=             -0.0000   XZ=             -0.0000   YZ=              0.0000

  Exact polarizability:       9.904       0.000       2.555      -0.000      -0.000       2.555
 Approx polarizability:      10.136      -0.000       2.566       0.000      -0.000       2.566

 ******    2 imaginary frequencies (negative Signs) ******

                      1                      2                      3
                      A                      A                      A
 Frequencies --  -1378.9720             -1378.9720               789.9363
 Red. masses --      1.0250                 1.0250                 1.0526
 Frc consts  --      1.1483                 1.1483                 0.3870
 IR Inten    --    117.2667               117.2667                 3.5237

                      4
                      A
 Frequencies --   5196.7159
 Red. masses --      1.0589
 Frc consts  --     16.8493
 IR Inten    --    177.1003

 - Thermochemistry -
 -------------------
 Temperature   298.150 Kelvin.  Pressure   1.00000 Atm.
 Atom     1 has atomic number  1 and mass   1.00783

 Molecular mass:    21.01405 amu.
 Principal axes and moments of inertia in atomic units:
                           1         2         3
     Eigenvalues --     0.00000  19.16151  19.16151
           X            1.00000  -0.00000   0.00000
           Y            0.00000   1.00000   0.00000
           Z            0.00000   0.00000   1.00000
 This molecule is a prolate symmetric top.
 Rotational symmetry number  1.
 Rotational temperature (Kelvin)      4.52020
 Rotational constant (GHZ):          94.185741
    2 imaginary frequencies ignored.
 Zero-point vibrational energy      35808.1 (Joules/Mol)
                                    8.55835 (Kcal/Mol)
 Vibrational temperatures:   1136.54  7476.92
          (Kelvin)

 Zero-point correction=                           0.013639 (Hartree/Particle)
 Thermal correction to Energy=                    0.016080
 Thermal correction to Enthalpy=                  0.017025
 Thermal correction to Gibbs Free Energy=        -0.005294
 Sum of electronic and zero-point Energies=           -100.947405
 Sum of electronic and thermal Energies=              -100.944963
 Sum of electronic and thermal Enthalpies=            -100.944019
 Sum of electronic and thermal Free Energies=         -100.966337

                     E (Thermal)             CV                S
                      KCal/Mol        Cal/Mol-Kelvin    Cal/Mol-Kelvin
 Total                   10.091              5.635             46.973
 Electronic               0.000              0.000              1.377
 Translational            0.889              2.981             35.068
 Rotational               0.592              1.987             10.312
 Vibrational              8.609              0.667              0.216

 Normal termination of Gaussian 16 at Fri Aug 22 15:53:03 2025.
