 Gaussian 16, Revision C.01,
 Gaussian 16:  ES64L-G16RevC.01  3-Jul-2019

 -----------------------------------------
 # sp b3lyp/6-311g** Force nosymm scf=(qc)
 -----------------------------------------

 -------------------
 Title Card Required
 -------------------
 Symbolic Z-matrix:
 Charge =  0 Multiplicity = 2

                          Input orientation:
 ---------------------------------------------------------------------
 Center     Atomic      Atomic             Coordinates (Angstroms)
 Number     Number       Type             X           Y           Z
 ---------------------------------------------------------------------
      1          1           0        0.000000    0.000000    0.000000
      2          1           0       -3.900000    0.000000    0.000000
      3          9           0        3.800000    0.000000    0.000000
 ---------------------------------------------------------------------

 SCF Done:  E(UB3LYP) =  -100.758519766     a.u. after   35 cycles

 Alpha  occ. eigenvalues --  -24.75749  -1.21685  -0.54873  -0.46072  -0.46072
 Alpha  occ. eigenvalues --   -0.32247
 Alpha virt. eigenvalues --   -0.06084   0.24181   0.37712   0.86853   0.91254
 Alpha virt. eigenvalues --    0.91254   1.01266   1.25248   1.25248   1.25280
 Alpha virt. eigenvalues --    1.46370   1.46370   1.46711   2.14641   2.42349

  Beta  occ. eigenvalues --  -24.72611  -1.12666  -0.42927  -0.42927  -0.32533
  Beta virt. eigenvalues --   -0.25666  -0.05898   0.23973   0.38208   0.92751
  Beta virt. eigenvalues --    0.92751   0.96155   1.05360   1.24932   1.24932
  Beta virt. eigenvalues --    1.24948   1.46603   1.46719   1.46719   2.14662

 Mulliken charges and spin densities:
               1          2
     1  H    0.004742  -0.993923
     2  H    0.000033   0.999198
     3  F   -0.004775   0.994725
 Sum of Mulliken charges =  -0.00000   1.00000

 Dipole moment (field-independent basis, Debye):
    X=             -0.0943    Y=             -0.0000    Z=             -0.0000  Tot=              0.0943
 Quadrupole moment (field-independent basis, Debye-Ang):
   XX=             -7.0689   YY=             -7.6192   ZZ=             -7.6192
   XY=              0.0000   XZ=              0.0000   YZ=             -0.0000

  Exact polarizability:      14.737      -0.000       2.033      -0.000      -0.000       2.033
 Approx polarizability:      10.868       0.000       1.936       0.000       0.000       1.936

 ******    2 imaginary frequencies (negative Signs) ******

                      1                      2                      3
                      A                      A                      A
 Frequencies --   -161.9860               -66.9781                49.6622
 Red. masses --      1.0306                 1.0823                 1.0183
 Frc consts  --      0.0159                 0.0029                 0.0015
 IR Inten    --      3.0986                 0.2876                 0.0221

                      4
                      A
 Frequencies --     49.6622
 Red. masses --      1.0183
 Frc consts  --      0.0015
 IR Inten    --      0.0221

 - Thermochemistry -
 -------------------
 Temperature   298.150 Kelvin.  Pressure   1.00000 Atm.
 Atom     1 has atomic number  1 and mass   1.00783

 Molecular mass:    21.01405 amu.
 Principal axes and moments of inertia in atomic units:
                           1         2         3
     Eigenvalues --     0.00000 242.52764 242.52764
           X            1.00000  -0.00000   0.00000
           Y            0.00000   1.00000   0.00000
           Z            0.00000   0.00000   1.00000
 This molecule is a prolate symmetric top.
 Rotational symmetry number  1.
 Rotational temperature (Kelvin)      0.35713
 Rotational constant (GHZ):           7.441384
    2 imaginary frequencies ignored.
 Zero-point vibrational energy        594.1 (Joules/Mol)
                                    0.14199 (Kcal/Mol)
 Warning -- explicit consideration of   2 degrees of freedom as
           vibrations may cause significant error
 Vibrational temperatures:     71.45    71.45
          (Kelvin)

 Zero-point correction=                           0.000226 (Hartree/Particle)
 Thermal correction to Energy=                    0.004258
 Thermal correction to Enthalpy=                  0.005202
 Thermal correction to Gibbs Free Energy=        -0.024001
 Sum of electronic and zero-point Energies=           -100.758293
 Sum of electronic and thermal Energies=              -100.754262
 Sum of electronic and thermal Enthalpies=            -100.753318
 Sum of electronic and thermal Free Energies=         -100.782521

                     E (Thermal)             CV                S
                      KCal/Mol        Cal/Mol-Kelvin    Cal/Mol-Kelvin
 Total                    2.672              8.923             61.463
 Electronic               0.000              0.000              1.377
 Translational            0.889              2.981             35.068
 Rotational               0.592              1.987             15.356
 Vibrational              1.191              3.955              9.662
 Vibration     1          0.595              1.978              4.831
 Vibration     2          0.595              1.978              4.831

 Normal termination of Gaussian 16 at Sat Aug 23 00:52:56 2025.
