 Gaussian 16, Revision C.01,
 Gaussian 16:  ES64L-G16RevC.01  3-Jul-2019

 -----------------------------------------
 # sp b3lyp/6-311g** Force nosymm scf=(qc)
 -----------------------------------------

 -------------------
 Title Card Required
 -------------------
 Symbolic Z-matrix:
 Charge =  0 Multiplicity = 2

                          Input orientation:
 ---------------------------------------------------------------------
 Center     Atomic      Atomic             Coordinates (Angstroms)
 Number     Number       Type             X           Y           Z
 ---------------------------------------------------------------------
      1          1           0        0.000000    0.000000    0.000000
      2          1           0       -1.100000    0.000000    0.000000
      3          9           0        3.750000    0.000000    0.000000
 ---------------------------------------------------------------------

 SCF Done:  E(UB3LYP) =  -100.889658524     a.u. after  399 cycles

 Alpha  occ. eigenvalues --  -24.76265  -1.22154  -0.55356  -0.46538  -0.46512
 Alpha  occ. eigenvalues --   -0.37513
 Alpha virt. eigenvalues --   -0.01879   0.22135   0.36254   0.86024   0.90901
 Alpha virt. eigenvalues --    0.91723   1.01079   1.10793   1.10796   1.29680
 Alpha virt. eigenvalues --    1.59906   1.59909   2.16234   2.34152   2.55247

  Beta  occ. eigenvalues --  -24.73109  -1.13079  -0.43374  -0.43348  -0.37511
  Beta virt. eigenvalues --   -0.26003  -0.01875   0.22140   0.36276   0.92401
  Beta virt. eigenvalues --    0.93217   0.95489   1.05214   1.10793   1.10796
  Beta virt. eigenvalues --    1.29684   1.59906   1.59908   2.16238   2.34154

 Mulliken charges and spin densities:
               1          2
     1  H    0.000569  -0.000123
     2  H   -0.002292  -0.000070
     3  F    0.001723   1.000192
 Sum of Mulliken charges =   0.00000   1.00000

 Dipole moment (field-independent basis, Debye):
    X=              0.0303    Y=              0.0000    Z=              0.0000  Tot=              0.0303
 Quadrupole moment (field-independent basis, Debye-Ang):
   XX=             -6.3113   YY=             -7.3877   ZZ=             -6.5238
   XY=              0.0000   XZ=              0.0000   YZ=              0.0159

  Exact polarizability:      13.870      -0.000       2.074       0.000       0.009       2.540
 Approx polarizability:      19.526       0.000       2.113       0.000       0.011       2.695

 ******    1 imaginary frequencies (negative Signs) ******

                      1                      2                      3
                      A                      A                      A
 Frequencies --    -63.9588              1026.4496              1528.8758
 Red. masses --      1.1085                 1.0078                 1.0095
 Frc consts  --      0.0027                 0.6256                 1.3902
 IR Inten    --      0.0774                 0.0870                 0.0011

                      4
                      A
 Frequencies --   1529.8214
 Red. masses --      1.0095
 Frc consts  --      1.3919
 IR Inten    --      0.0007

 - Thermochemistry -
 -------------------
 Temperature   298.150 Kelvin.  Pressure   1.00000 Atm.
 Atom     1 has atomic number  1 and mass   1.00783

 Molecular mass:    21.01405 amu.
 Principal axes and moments of inertia in atomic units:
                           1         2         3
     Eigenvalues --     0.00000 122.50273 122.50273
           X            1.00000  -0.00000   0.00000
           Y            0.00000   1.00000   0.00000
           Z            0.00000   0.00000   1.00000
 This molecule is a prolate symmetric top.
 Rotational symmetry number  1.
 Rotational temperature (Kelvin)      0.70704
 Rotational constant (GHZ):          14.732253
    1 imaginary frequencies ignored.
 Zero-point vibrational energy      24434.6 (Joules/Mol)
                                    5.84001 (Kcal/Mol)
 Vibrational temperatures:   1476.83  2199.71  2201.07
          (Kelvin)

 Zero-point correction=                           0.009307 (Hartree/Particle)
 Thermal correction to Energy=                    0.011709
 Thermal correction to Enthalpy=                  0.012653
 Thermal correction to Gibbs Free Energy=        -0.011364
 Sum of electronic and zero-point Energies=           -100.880352
 Sum of electronic and thermal Energies=              -100.877949
 Sum of electronic and thermal Enthalpies=            -100.877005
 Sum of electronic and thermal Free Energies=         -100.901023

                     E (Thermal)             CV                S
                      KCal/Mol        Cal/Mol-Kelvin    Cal/Mol-Kelvin
 Total                    7.348              5.452             50.549
 Electronic               0.000              0.000              1.377
 Translational            0.889              2.981             35.068
 Rotational               0.592              1.987             13.998
 Vibrational              5.866              0.484              0.105

 Normal termination of Gaussian 16 at Sat Aug 23 00:14:07 2025.
