 Gaussian 16, Revision C.01,
 Gaussian 16:  ES64L-G16RevC.01  3-Jul-2019

 -----------------------------------------
 # sp b3lyp/6-311g** Force nosymm scf=(qc)
 -----------------------------------------

 -------------------
 Title Card Required
 -------------------
 Symbolic Z-matrix:
 Charge =  0 Multiplicity = 2

                          Input orientation:
 ---------------------------------------------------------------------
 Center     Atomic      Atomic             Coordinates (Angstroms)
 Number     Number       Type             X           Y           Z
 ---------------------------------------------------------------------
      1          1           0        0.000000    0.000000    0.000000
      2          1           0       -3.100000    0.000000    0.000000
      3          9           0        1.250000    0.000000    0.000000
 ---------------------------------------------------------------------

 SCF Done:  E(UB3LYP) =  -100.913588053     a.u. after    6 cycles

 Alpha  occ. eigenvalues --  -24.64321  -1.11612  -0.46859  -0.37248  -0.37248
 Alpha  occ. eigenvalues --   -0.34320
 Alpha virt. eigenvalues --   -0.07207   0.22592   0.28629   0.93094   0.93094
 Alpha virt. eigenvalues --    1.01458   1.22942   1.23205   1.23205   1.25209
 Alpha virt. eigenvalues --    1.34300   1.34300   1.71581   2.14009   2.26879

  Beta  occ. eigenvalues --  -24.64308  -1.11579  -0.46816  -0.37236  -0.37236
  Beta virt. eigenvalues --   -0.09635  -0.04867   0.26433   0.37873   0.93092
  Beta virt. eigenvalues --    0.93092   1.01493   1.24699   1.34268   1.34268
  Beta virt. eigenvalues --    1.45541   1.45950   1.45950   1.71693   2.26836

 Mulliken charges and spin densities:
               1          2
     1  H    0.354791  -0.000427
     2  H    0.003300   0.996229
     3  F   -0.358091   0.004198
 Sum of Mulliken charges =   0.00000   1.00000

 Dipole moment (field-independent basis, Debye):
    X=             -2.3851    Y=             -0.0000    Z=              0.0000  Tot=              2.3851
 Quadrupole moment (field-independent basis, Debye-Ang):
   XX=             -8.9293   YY=             -7.1648   ZZ=             -7.1648
   XY=             -0.0000   XZ=              0.0000   YZ=             -0.0000

  Exact polarizability:      11.378      -0.000       2.307       0.000       0.000       2.307
 Approx polarizability:      16.206       0.000       2.258      -0.000      -0.000       2.258

 ******    1 imaginary frequencies (negative Signs) ******

                      1                      2                      3
                      A                      A                      A
 Frequencies --   -106.8469               420.1811              1179.5900
 Red. masses --      1.0439                 1.0680                 1.0315
 Frc consts  --      0.0070                 0.1111                 0.8457
 IR Inten    --      2.2538                73.2300               137.1203

                      4
                      A
 Frequencies --   1179.5900
 Red. masses --      1.0315
 Frc consts  --      0.8457
 IR Inten    --    137.1203

 - Thermochemistry -
 -------------------
 Temperature   298.150 Kelvin.  Pressure   1.00000 Atm.
 Atom     1 has atomic number  1 and mass   1.00783

 Molecular mass:    21.01405 amu.
 Principal axes and moments of inertia in atomic units:
                           1         2         3
     Eigenvalues --     0.00000  68.31274  68.31274
           X            1.00000  -0.00000   0.00000
           Y            0.00000   1.00000   0.00000
           Z            0.00000   0.00000   1.00000
 This molecule is a prolate symmetric top.
 Rotational symmetry number  1.
 Rotational temperature (Kelvin)      1.26790
 Rotational constant (GHZ):          26.418810
    1 imaginary frequencies ignored.
 Zero-point vibrational energy      16624.3 (Joules/Mol)
                                    3.97330 (Kcal/Mol)
 Warning -- explicit consideration of   1 degrees of freedom as
           vibrations may cause significant error
 Vibrational temperatures:    604.55  1697.17  1697.17
          (Kelvin)

 Zero-point correction=                           0.006332 (Hartree/Particle)
 Thermal correction to Energy=                    0.009019
 Thermal correction to Enthalpy=                  0.009963
 Thermal correction to Gibbs Free Energy=        -0.013919
 Sum of electronic and zero-point Energies=           -100.907256
 Sum of electronic and thermal Energies=              -100.904569
 Sum of electronic and thermal Enthalpies=            -100.903625
 Sum of electronic and thermal Free Energies=         -100.927507

                     E (Thermal)             CV                S
                      KCal/Mol        Cal/Mol-Kelvin    Cal/Mol-Kelvin
 Total                    5.659              6.832             50.265
 Electronic               0.000              0.000              1.377
 Translational            0.889              2.981             35.068
 Rotational               0.592              1.987             12.838
 Vibrational              4.178              1.864              0.981
 Vibration     1          0.783              1.426              0.891

 Normal termination of Gaussian 16 at Fri Aug 22 16:13:20 2025.
