 Gaussian 16, Revision C.01,
 Gaussian 16:  ES64L-G16RevC.01  3-Jul-2019

 -----------------------------------------
 # sp b3lyp/6-311g** Force nosymm scf=(qc)
 -----------------------------------------

 -------------------
 Title Card Required
 -------------------
 Symbolic Z-matrix:
 Charge =  0 Multiplicity = 2

                          Input orientation:
 ---------------------------------------------------------------------
 Center     Atomic      Atomic             Coordinates (Angstroms)
 Number     Number       Type             X           Y           Z
 ---------------------------------------------------------------------
      1          1           0        0.000000    0.000000    0.000000
      2          1           0       -1.350000    0.000000    0.000000
      3          9           0        1.900000    0.000000    0.000000
 ---------------------------------------------------------------------

 SCF Done:  E(UB3LYP) =  -100.858695246     a.u. after   13 cycles

 Alpha  occ. eigenvalues --  -24.70028  -1.16433  -0.49906  -0.41371  -0.41371
 Alpha  occ. eigenvalues --   -0.38845
 Alpha virt. eigenvalues --   -0.07693   0.21761   0.31659   0.87961   0.93077
 Alpha virt. eigenvalues --    0.93077   1.03892   1.13104   1.13104   1.36567
 Alpha virt. eigenvalues --    1.44324   1.44324   1.95631   2.23846   2.49312

  Beta  occ. eigenvalues --  -24.67463  -1.09235  -0.38836  -0.38836  -0.38573
  Beta virt. eigenvalues --   -0.23924  -0.05649   0.23468   0.31949   0.92872
  Beta virt. eigenvalues --    0.94054   0.94054   1.07604   1.15242   1.15242
  Beta virt. eigenvalues --    1.40657   1.45402   1.45402   1.97843   2.25098

 Mulliken charges and spin densities:
               1          2
     1  H    0.086283  -0.234837
     2  H    0.063601   0.431824
     3  F   -0.149885   0.803012
 Sum of Mulliken charges =  -0.00000   1.00000

 Dipole moment (field-independent basis, Debye):
    X=             -1.8062    Y=             -0.0000    Z=             -0.0000  Tot=              1.8062
 Quadrupole moment (field-independent basis, Debye-Ang):
   XX=             -7.4561   YY=             -7.4303   ZZ=             -7.4303
   XY=             -0.0000   XZ=             -0.0000   YZ=             -0.0000

  Exact polarizability:      46.331      -0.000       2.176      -0.000       0.000       2.176
 Approx polarizability:      72.036       0.000       2.141       0.000      -0.000       2.141

 ******    2 imaginary frequencies (negative Signs) ******

                      1                      2                      3
                      A                      A                      A
 Frequencies --  -2104.4903              -389.6029              1223.1331
 Red. masses --      1.0144                 1.1006                 1.0143
 Frc consts  --      2.6470                 0.0984                 0.8941
 IR Inten    --   1115.9444                 2.2569                 1.4693

                      4
                      A
 Frequencies --   1223.1331
 Red. masses --      1.0143
 Frc consts  --      0.8941
 IR Inten    --      1.4693

 - Thermochemistry -
 -------------------
 Temperature   298.150 Kelvin.  Pressure   1.00000 Atm.
 Atom     1 has atomic number  1 and mass   1.00783

 Molecular mass:    21.01405 amu.
 Principal axes and moments of inertia in atomic units:
                           1         2         3
     Eigenvalues --     0.00000  46.42898  46.42898
           X            1.00000  -0.00000   0.00000
           Y            0.00000   1.00000   0.00000
           Z            0.00000   0.00000   1.00000
 This molecule is a prolate symmetric top.
 Rotational symmetry number  1.
 Rotational temperature (Kelvin)      1.86551
 Rotational constant (GHZ):          38.871006
    2 imaginary frequencies ignored.
 Zero-point vibrational energy      14631.9 (Joules/Mol)
                                    3.49711 (Kcal/Mol)
 Vibrational temperatures:   1759.82  1759.82
          (Kelvin)

 Zero-point correction=                           0.005573 (Hartree/Particle)
 Thermal correction to Energy=                    0.007964
 Thermal correction to Enthalpy=                  0.008908
 Thermal correction to Gibbs Free Energy=        -0.014179
 Sum of electronic and zero-point Energies=           -100.853122
 Sum of electronic and thermal Energies=              -100.850731
 Sum of electronic and thermal Enthalpies=            -100.849787
 Sum of electronic and thermal Free Energies=         -100.872874

                     E (Thermal)             CV                S
                      KCal/Mol        Cal/Mol-Kelvin    Cal/Mol-Kelvin
 Total                    4.997              5.348             48.591
 Electronic               0.000              0.000              1.377
 Translational            0.889              2.981             35.068
 Rotational               0.592              1.987             12.070
 Vibrational              3.516              0.380              0.075

 Normal termination of Gaussian 16 at Fri Aug 22 16:49:25 2025.
