 Gaussian 16, Revision C.01,
 Gaussian 16:  ES64L-G16RevC.01  3-Jul-2019

 -----------------------------------------
 # sp b3lyp/6-311g** Force nosymm scf=(qc)
 -----------------------------------------

 -------------------
 Title Card Required
 -------------------
 Symbolic Z-matrix:
 Charge =  0 Multiplicity = 2

                          Input orientation:
 ---------------------------------------------------------------------
 Center     Atomic      Atomic             Coordinates (Angstroms)
 Number     Number       Type             X           Y           Z
 ---------------------------------------------------------------------
      1          1           0        0.000000    0.000000    0.000000
      2          1           0       -3.750000    0.000000    0.000000
      3          9           0        3.350000    0.000000    0.000000
 ---------------------------------------------------------------------

 SCF Done:  E(UB3LYP) =  -100.759313957     a.u. after   25 cycles

 Alpha  occ. eigenvalues --  -24.75088  -1.21073  -0.54210  -0.45515  -0.45515
 Alpha  occ. eigenvalues --   -0.32352
 Alpha virt. eigenvalues --   -0.06883   0.24089   0.36887   0.88092   0.91666
 Alpha virt. eigenvalues --    0.91666   1.02267   1.25147   1.25147   1.25205
 Alpha virt. eigenvalues --    1.45466   1.45466   1.45799   2.14675   2.41720

  Beta  occ. eigenvalues --  -24.71993  -1.12186  -0.42415  -0.42415  -0.33024
  Beta virt. eigenvalues --   -0.25326  -0.06127   0.23839   0.38120   0.93149
  Beta virt. eigenvalues --    0.93149   0.97121   1.06208   1.24374   1.24374
  Beta virt. eigenvalues --    1.24429   1.46335   1.46517   1.46517   2.14912

 Mulliken charges and spin densities:
               1          2
     1  H    0.017038  -0.980057
     2  H    0.000127   0.998865
     3  F   -0.017165   0.981191
 Sum of Mulliken charges =  -0.00000   1.00000

 Dipole moment (field-independent basis, Debye):
    X=             -0.2978    Y=              0.0000    Z=              0.0000  Tot=              0.2978
 Quadrupole moment (field-independent basis, Debye-Ang):
   XX=             -7.6595   YY=             -7.6167   ZZ=             -7.6167
   XY=              0.0000   XZ=              0.0000   YZ=              0.0000

  Exact polarizability:      26.611       0.000       2.032       0.000      -0.000       2.032
 Approx polarizability:      22.650       0.000       1.932       0.000       0.000       1.932

 ******    2 imaginary frequencies (negative Signs) ******

                      1                      2                      3
                      A                      A                      A
 Frequencies --   -260.0494               -87.6240                80.3986
 Red. masses --      1.0439                 1.0680                 1.0194
 Frc consts  --      0.0416                 0.0048                 0.0039
 IR Inten    --     18.0008                 0.4004                 0.2681

                      4
                      A
 Frequencies --     80.3986
 Red. masses --      1.0194
 Frc consts  --      0.0039
 IR Inten    --      0.2681

 - Thermochemistry -
 -------------------
 Temperature   298.150 Kelvin.  Pressure   1.00000 Atm.
 Atom     1 has atomic number  1 and mass   1.00783

 Molecular mass:    21.01405 amu.
 Principal axes and moments of inertia in atomic units:
                           1         2         3
     Eigenvalues --     0.00000 202.96679 202.96679
           X            1.00000  -0.00000   0.00000
           Y            0.00000   1.00000   0.00000
           Z            0.00000   0.00000   1.00000
 This molecule is a prolate symmetric top.
 Rotational symmetry number  1.
 Rotational temperature (Kelvin)      0.42674
 Rotational constant (GHZ):           8.891806
    2 imaginary frequencies ignored.
 Zero-point vibrational energy        961.8 (Joules/Mol)
                                    0.22987 (Kcal/Mol)
 Warning -- explicit consideration of   2 degrees of freedom as
           vibrations may cause significant error
 Vibrational temperatures:    115.68   115.68
          (Kelvin)

 Zero-point correction=                           0.000366 (Hartree/Particle)
 Thermal correction to Energy=                    0.004272
 Thermal correction to Enthalpy=                  0.005217
 Thermal correction to Gibbs Free Energy=        -0.022916
 Sum of electronic and zero-point Energies=           -100.758948
 Sum of electronic and thermal Energies=              -100.755041
 Sum of electronic and thermal Enthalpies=            -100.754097
 Sum of electronic and thermal Free Energies=         -100.782230

                     E (Thermal)             CV                S
                      KCal/Mol        Cal/Mol-Kelvin    Cal/Mol-Kelvin
 Total                    2.681              8.893             59.209
 Electronic               0.000              0.000              1.377
 Translational            0.889              2.981             35.068
 Rotational               0.592              1.987             15.002
 Vibrational              1.200              3.925              7.762
 Vibration     1          0.600              1.962              3.881
 Vibration     2          0.600              1.962              3.881

 Normal termination of Gaussian 16 at Fri Aug 22 21:03:30 2025.
