 Gaussian 16, Revision C.01,
 Gaussian 16:  ES64L-G16RevC.01  3-Jul-2019

 -----------------------------------------
 # sp b3lyp/6-311g** Force nosymm scf=(qc)
 -----------------------------------------

 -------------------
 Title Card Required
 -------------------
 Symbolic Z-matrix:
 Charge =  0 Multiplicity = 2

                          Input orientation:
 ---------------------------------------------------------------------
 Center     Atomic      Atomic             Coordinates (Angstroms)
 Number     Number       Type             X           Y           Z
 ---------------------------------------------------------------------
      1          1           0        0.000000    0.000000    0.000000
      2          1           0       -3.650000    0.000000    0.000000
      3          9           0        1.400000    0.000000    0.000000
 ---------------------------------------------------------------------

 SCF Done:  E(UB3LYP) =  -100.877303528     a.u. after    7 cycles

 Alpha  occ. eigenvalues --  -24.64374  -1.10281  -0.44561  -0.36713  -0.36713
 Alpha  occ. eigenvalues --   -0.33813
 Alpha virt. eigenvalues --   -0.11893   0.20746   0.27801   0.93109   0.93109
 Alpha virt. eigenvalues --    1.03161   1.15243   1.23692   1.23698   1.23698
 Alpha virt. eigenvalues --    1.32607   1.32607   1.71458   2.13294   2.21337

  Beta  occ. eigenvalues --  -24.64366  -1.10259  -0.44540  -0.36705  -0.36705
  Beta virt. eigenvalues --   -0.12175  -0.06213   0.23881   0.38379   0.93106
  Beta virt. eigenvalues --    0.93106   1.03183   1.15271   1.32575   1.32575
  Beta virt. eigenvalues --    1.46273   1.46696   1.46696   1.71476   2.20621

 Mulliken charges and spin densities:
               1          2
     1  H    0.356342  -0.001476
     2  H    0.001145   0.998782
     3  F   -0.357486   0.002695
 Sum of Mulliken charges =   0.00000   1.00000

 Dipole moment (field-independent basis, Debye):
    X=             -2.5102    Y=              0.0000    Z=              0.0000  Tot=              2.5102
 Quadrupole moment (field-independent basis, Debye-Ang):
   XX=             -9.5664   YY=             -7.2638   ZZ=             -7.2638
   XY=              0.0000   XZ=              0.0000   YZ=             -0.0000

  Exact polarizability:      13.042       0.000       2.233      -0.000      -0.000       2.233
 Approx polarizability:      22.312      -0.000       2.166       0.000       0.000       2.166

 ******    2 imaginary frequencies (negative Signs) ******

                      1                      2                      3
                      A                      A                      A
 Frequencies --  -1014.5690               -59.1339              1094.4467
 Red. masses --      1.0577                 1.0538                 1.0324
 Frc consts  --      0.6415                 0.0022                 0.7286
 IR Inten    --     48.7462                 0.0786               127.3745

                      4
                      A
 Frequencies --   1094.4467
 Red. masses --      1.0324
 Frc consts  --      0.7286
 IR Inten    --    127.3745

 - Thermochemistry -
 -------------------
 Temperature   298.150 Kelvin.  Pressure   1.00000 Atm.
 Atom     1 has atomic number  1 and mass   1.00783

 Molecular mass:    21.01405 amu.
 Principal axes and moments of inertia in atomic units:
                           1         2         3
     Eigenvalues --     0.00000  91.65689  91.65689
           X            1.00000  -0.00000   0.00000
           Y            0.00000   1.00000   0.00000
           Z            0.00000   0.00000   1.00000
 This molecule is a prolate symmetric top.
 Rotational symmetry number  1.
 Rotational temperature (Kelvin)      0.94498
 Rotational constant (GHZ):          19.690185
    2 imaginary frequencies ignored.
 Zero-point vibrational energy      13092.5 (Joules/Mol)
                                    3.12918 (Kcal/Mol)
 Vibrational temperatures:   1574.66  1574.66
          (Kelvin)

 Zero-point correction=                           0.004987 (Hartree/Particle)
 Thermal correction to Energy=                    0.007398
 Thermal correction to Enthalpy=                  0.008342
 Thermal correction to Gibbs Free Energy=        -0.015412
 Sum of electronic and zero-point Energies=           -100.872317
 Sum of electronic and thermal Energies=              -100.869905
 Sum of electronic and thermal Enthalpies=            -100.868961
 Sum of electronic and thermal Free Energies=         -100.892715

                     E (Thermal)             CV                S
                      KCal/Mol        Cal/Mol-Kelvin    Cal/Mol-Kelvin
 Total                    4.642              5.538             49.995
 Electronic               0.000              0.000              1.377
 Translational            0.889              2.981             35.068
 Rotational               0.592              1.987             13.422
 Vibrational              3.161              0.570              0.128

 Normal termination of Gaussian 16 at Fri Aug 22 16:21:18 2025.
