 Gaussian 16, Revision C.01,
 Gaussian 16:  ES64L-G16RevC.01  3-Jul-2019

 -----------------------------------------
 # sp b3lyp/6-311g** Force nosymm scf=(qc)
 -----------------------------------------

 -------------------
 Title Card Required
 -------------------
 Symbolic Z-matrix:
 Charge =  0 Multiplicity = 2

                          Input orientation:
 ---------------------------------------------------------------------
 Center     Atomic      Atomic             Coordinates (Angstroms)
 Number     Number       Type             X           Y           Z
 ---------------------------------------------------------------------
      1          1           0        0.000000    0.000000    0.000000
      2          1           0       -3.100000    0.000000    0.000000
      3          9           0        0.600000    0.000000    0.000000
 ---------------------------------------------------------------------

 SCF Done:  E(UB3LYP) =  -100.687974745     a.u. after    6 cycles

 Alpha  occ. eigenvalues --  -24.62724  -1.34717  -0.61021  -0.42971  -0.42971
 Alpha  occ. eigenvalues --   -0.33634
 Alpha virt. eigenvalues --    0.07624   0.25467   0.58143   0.92133   0.92133
 Alpha virt. eigenvalues --    0.93152   1.22895   1.23887   1.23887   1.36733
 Alpha virt. eigenvalues --    1.50275   1.50275   1.95617   2.15114   3.36524

  Beta  occ. eigenvalues --  -24.62723  -1.34713  -0.61019  -0.42970  -0.42970
  Beta virt. eigenvalues --   -0.05709   0.08493   0.39431   0.58253   0.92130
  Beta virt. eigenvalues --    0.92130   0.93156   1.33919   1.50278   1.50278
  Beta virt. eigenvalues --    1.50718   1.50718   1.52423   1.95510   2.44945

 Mulliken charges and spin densities:
               1          2
     1  H    0.236884   0.001017
     2  H    0.001555   0.998002
     3  F   -0.238440   0.000981
 Sum of Mulliken charges =   0.00000   1.00000

 Dipole moment (field-independent basis, Debye):
    X=             -1.4530    Y=             -0.0000    Z=              0.0000  Tot=              1.4530
 Quadrupole moment (field-independent basis, Debye-Ang):
   XX=             -6.9160   YY=             -6.5516   ZZ=             -6.5516
   XY=              0.0000   XZ=             -0.0000   YZ=             -0.0000

  Exact polarizability:       3.856      -0.000       2.445      -0.000       0.000       2.445
 Approx polarizability:       4.030      -0.000       2.425      -0.000       0.000       2.425

 ******    3 imaginary frequencies (negative Signs) ******

                      1                      2                      3
                      A                      A                      A
 Frequencies --  -5871.2056             -5871.2056               -19.5026
 Red. masses --      1.0424                 1.0424                 1.0532
 Frc consts  --     21.1706                21.1706                 0.0002
 IR Inten    --    236.5476               236.5476                 0.0668

                      4
                      A
 Frequencies --  13070.7081
 Red. masses --      1.0583
 Frc consts  --    106.5276
 IR Inten    --    100.5568

 - Thermochemistry -
 -------------------
 Temperature   298.150 Kelvin.  Pressure   1.00000 Atm.
 Atom     1 has atomic number  1 and mass   1.00783

 Molecular mass:    21.01405 amu.
 Principal axes and moments of inertia in atomic units:
                           1         2         3
     Eigenvalues --     0.00000  47.37457  47.37457
           X            1.00000  -0.00000   0.00000
           Y            0.00000   1.00000   0.00000
           Z            0.00000   0.00000   1.00000
 This molecule is a prolate symmetric top.
 Rotational symmetry number  1.
 Rotational temperature (Kelvin)      1.82828
 Rotational constant (GHZ):          38.095148
    3 imaginary frequencies ignored.
 Zero-point vibrational energy      78180.2 (Joules/Mol)
                                   18.68552 (Kcal/Mol)
 Vibrational temperatures:  18805.83
          (Kelvin)

 Zero-point correction=                           0.029777 (Hartree/Particle)
 Thermal correction to Energy=                    0.032138
 Thermal correction to Enthalpy=                  0.033082
 Thermal correction to Gibbs Free Energy=         0.010011
 Sum of electronic and zero-point Energies=           -100.658197
 Sum of electronic and thermal Energies=              -100.655837
 Sum of electronic and thermal Enthalpies=            -100.654893
 Sum of electronic and thermal Free Energies=         -100.677963

                     E (Thermal)             CV                S
                      KCal/Mol        Cal/Mol-Kelvin    Cal/Mol-Kelvin
 Total                   20.167              4.968             48.556
 Electronic               0.000              0.000              1.377
 Translational            0.889              2.981             35.068
 Rotational               0.592              1.987             12.110
 Vibrational             18.686              0.000              0.000

 Normal termination of Gaussian 16 at Fri Aug 22 15:42:25 2025.
