 Gaussian 16, Revision C.01,
 Gaussian 16:  ES64L-G16RevC.01  3-Jul-2019

 -----------------------------------------
 # sp b3lyp/6-311g** Force nosymm scf=(qc)
 -----------------------------------------

 -------------------
 Title Card Required
 -------------------
 Symbolic Z-matrix:
 Charge =  0 Multiplicity = 2

                          Input orientation:
 ---------------------------------------------------------------------
 Center     Atomic      Atomic             Coordinates (Angstroms)
 Number     Number       Type             X           Y           Z
 ---------------------------------------------------------------------
      1          1           0        0.000000    0.000000    0.000000
      2          1           0       -1.450000    0.000000    0.000000
      3          9           0        2.100000    0.000000    0.000000
 ---------------------------------------------------------------------

 SCF Done:  E(UB3LYP) =  -100.838176465     a.u. after   13 cycles

 Alpha  occ. eigenvalues --  -24.71010  -1.17304  -0.50421  -0.42143  -0.42143
 Alpha  occ. eigenvalues --   -0.37655
 Alpha virt. eigenvalues --   -0.09888   0.22600   0.31585   0.85894   0.93427
 Alpha virt. eigenvalues --    0.93427   1.03283   1.15743   1.15743   1.26770
 Alpha virt. eigenvalues --    1.40609   1.40609   1.85250   2.21184   2.46510

  Beta  occ. eigenvalues --  -24.68297  -1.09633  -0.39450  -0.39450  -0.37098
  Beta virt. eigenvalues --   -0.24069  -0.08409   0.24236   0.31602   0.90751
  Beta virt. eigenvalues --    0.94606   0.94606   1.07069   1.17231   1.17231
  Beta virt. eigenvalues --    1.30795   1.41446   1.41446   1.86652   2.22301

 Mulliken charges and spin densities:
               1          2
     1  H    0.059702  -0.299330
     2  H    0.057034   0.446230
     3  F   -0.116736   0.853100
 Sum of Mulliken charges =  -0.00000   1.00000

 Dipole moment (field-independent basis, Debye):
    X=             -1.6150    Y=             -0.0000    Z=             -0.0000  Tot=              1.6150
 Quadrupole moment (field-independent basis, Debye-Ang):
   XX=             -7.3972   YY=             -7.5472   ZZ=             -7.5472
   XY=             -0.0000   XZ=             -0.0000   YZ=             -0.0000

  Exact polarizability:      52.895       0.000       2.107       0.000       0.000       2.107
 Approx polarizability:      80.276      -0.000       2.073      -0.000      -0.000       2.073

 ******    2 imaginary frequencies (negative Signs) ******

                      1                      2                      3
                      A                      A                      A
 Frequencies --  -2083.4084              -412.4865              1152.2446
 Red. masses --      1.0109                 1.1048                 1.0141
 Frc consts  --      2.5853                 0.1108                 0.7933
 IR Inten    --    913.8389                18.2816                 0.6113

                      4
                      A
 Frequencies --   1152.2446
 Red. masses --      1.0141
 Frc consts  --      0.7933
 IR Inten    --      0.6113

 - Thermochemistry -
 -------------------
 Temperature   298.150 Kelvin.  Pressure   1.00000 Atm.
 Atom     1 has atomic number  1 and mass   1.00783

 Molecular mass:    21.01405 amu.
 Principal axes and moments of inertia in atomic units:
                           1         2         3
     Eigenvalues --     0.00000  55.71809  55.71809
           X            1.00000  -0.00000   0.00000
           Y            0.00000   1.00000   0.00000
           Z            0.00000   0.00000   1.00000
 This molecule is a prolate symmetric top.
 Rotational symmetry number  1.
 Rotational temperature (Kelvin)      1.55450
 Rotational constant (GHZ):          32.390580
    2 imaginary frequencies ignored.
 Zero-point vibrational energy      13783.9 (Joules/Mol)
                                    3.29443 (Kcal/Mol)
 Vibrational temperatures:   1657.82  1657.82
          (Kelvin)

 Zero-point correction=                           0.005250 (Hartree/Particle)
 Thermal correction to Energy=                    0.007651
 Thermal correction to Enthalpy=                  0.008595
 Thermal correction to Gibbs Free Energy=        -0.014676
 Sum of electronic and zero-point Energies=           -100.832926
 Sum of electronic and thermal Energies=              -100.830525
 Sum of electronic and thermal Enthalpies=            -100.829581
 Sum of electronic and thermal Free Energies=         -100.852853

                     E (Thermal)             CV                S
                      KCal/Mol        Cal/Mol-Kelvin    Cal/Mol-Kelvin
 Total                    4.801              5.444             48.979
 Electronic               0.000              0.000              1.377
 Translational            0.889              2.981             35.068
 Rotational               0.592              1.987             12.433
 Vibrational              3.320              0.476              0.101

 Normal termination of Gaussian 16 at Fri Aug 22 17:03:19 2025.
