 Gaussian 16, Revision C.01,
 Gaussian 16:  ES64L-G16RevC.01  3-Jul-2019

 -----------------------------------------
 # sp b3lyp/6-311g** Force nosymm scf=(qc)
 -----------------------------------------

 -------------------
 Title Card Required
 -------------------
 Symbolic Z-matrix:
 Charge =  0 Multiplicity = 2

                          Input orientation:
 ---------------------------------------------------------------------
 Center     Atomic      Atomic             Coordinates (Angstroms)
 Number     Number       Type             X           Y           Z
 ---------------------------------------------------------------------
      1          1           0        0.000000    0.000000    0.000000
      2          1           0       -2.350000    0.000000    0.000000
      3          9           0        1.850000    0.000000    0.000000
 ---------------------------------------------------------------------

 SCF Done:  E(UB3LYP) =  -100.804242262     a.u. after   17 cycles

 Alpha  occ. eigenvalues --  -24.66786  -1.13050  -0.45726  -0.38504  -0.38504
 Alpha  occ. eigenvalues --   -0.35689
 Alpha virt. eigenvalues --   -0.14219   0.23820   0.29665   0.92147   0.95031
 Alpha virt. eigenvalues --    0.95031   1.06189   1.22006   1.22006   1.26150
 Alpha virt. eigenvalues --    1.33969   1.33969   1.67453   2.12460   2.27005

  Beta  occ. eigenvalues --  -24.64723  -1.07343  -0.38603  -0.36485  -0.36485
  Beta virt. eigenvalues --   -0.19925  -0.10356   0.24837   0.33911   0.93716
  Beta virt. eigenvalues --    0.95251   0.95251   1.08657   1.23763   1.23763
  Beta virt. eigenvalues --    1.39788   1.39788   1.42370   1.62658   2.13020

 Mulliken charges and spin densities:
               1          2
     1  H    0.211601  -0.605034
     2  H    0.026809   0.956611
     3  F   -0.238410   0.648423
 Sum of Mulliken charges =   0.00000   1.00000

 Dipole moment (field-independent basis, Debye):
    X=             -2.4637    Y=             -0.0000    Z=              0.0000  Tot=              2.4637
 Quadrupole moment (field-independent basis, Debye-Ang):
   XX=             -9.3123   YY=             -7.4865   ZZ=             -7.4865
   XY=              0.0000   XZ=             -0.0000   YZ=             -0.0000

  Exact polarizability:      37.794       0.000       2.089      -0.000      -0.000       2.089
 Approx polarizability:      47.045      -0.000       1.985       0.000      -0.000       1.985

 ******    2 imaginary frequencies (negative Signs) ******

                      1                      2                      3
                      A                      A                      A
 Frequencies --  -1504.3106              -451.3642               632.7393
 Red. masses --      1.0433                 1.0686                 1.0211
 Frc consts  --      1.3910                 0.1283                 0.2409
 IR Inten    --     91.8306                17.4308                35.1480

                      4
                      A
 Frequencies --    632.7393
 Red. masses --      1.0211
 Frc consts  --      0.2409
 IR Inten    --     35.1480

 - Thermochemistry -
 -------------------
 Temperature   298.150 Kelvin.  Pressure   1.00000 Atm.
 Atom     1 has atomic number  1 and mass   1.00783

 Molecular mass:    21.01405 amu.
 Principal axes and moments of inertia in atomic units:
                           1         2         3
     Eigenvalues --     0.00000  69.48627  69.48627
           X            1.00000  -0.00000   0.00000
           Y            0.00000   1.00000   0.00000
           Z            0.00000   0.00000   1.00000
 This molecule is a prolate symmetric top.
 Rotational symmetry number  1.
 Rotational temperature (Kelvin)      1.24649
 Rotational constant (GHZ):          25.972629
    2 imaginary frequencies ignored.
 Zero-point vibrational energy       7569.2 (Joules/Mol)
                                    1.80909 (Kcal/Mol)
 Vibrational temperatures:    910.37   910.37
          (Kelvin)

 Zero-point correction=                           0.002883 (Hartree/Particle)
 Thermal correction to Energy=                    0.005529
 Thermal correction to Enthalpy=                  0.006473
 Thermal correction to Gibbs Free Energy=        -0.017336
 Sum of electronic and zero-point Energies=           -100.801359
 Sum of electronic and thermal Energies=              -100.798713
 Sum of electronic and thermal Enthalpies=            -100.797769
 Sum of electronic and thermal Free Energies=         -100.821578

                     E (Thermal)             CV                S
                      KCal/Mol        Cal/Mol-Kelvin    Cal/Mol-Kelvin
 Total                    3.470              6.894             50.110
 Electronic               0.000              0.000              1.377
 Translational            0.889              2.981             35.068
 Rotational               0.592              1.987             12.872
 Vibrational              1.988              1.926              0.793

 Normal termination of Gaussian 16 at Fri Aug 22 16:47:04 2025.
