 Gaussian 16, Revision C.01,
 Gaussian 16:  ES64L-G16RevC.01  3-Jul-2019

 -----------------------------------------
 # sp b3lyp/6-311g** Force nosymm scf=(qc)
 -----------------------------------------

 -------------------
 Title Card Required
 -------------------
 Symbolic Z-matrix:
 Charge =  0 Multiplicity = 2

                          Input orientation:
 ---------------------------------------------------------------------
 Center     Atomic      Atomic             Coordinates (Angstroms)
 Number     Number       Type             X           Y           Z
 ---------------------------------------------------------------------
      1          1           0        0.000000    0.000000    0.000000
      2          1           0       -1.250000    0.000000    0.000000
      3          9           0        0.750000    0.000000    0.000000
 ---------------------------------------------------------------------

 SCF Done:  E(UB3LYP) =  -100.908702081     a.u. after    6 cycles

 Alpha  occ. eigenvalues --  -24.63750  -1.26256  -0.59674  -0.41556  -0.41556
 Alpha  occ. eigenvalues --   -0.35959
 Alpha virt. eigenvalues --    0.14576   0.20252   0.54677   0.92420   0.92420
 Alpha virt. eigenvalues --    0.95077   1.11905   1.11905   1.42190   1.53921
 Alpha virt. eigenvalues --    1.53921   1.64042   2.01649   2.26408   3.24565

  Beta  occ. eigenvalues --  -24.63477  -1.25496  -0.57924  -0.41331  -0.41331
  Beta virt. eigenvalues --   -0.13971   0.15713   0.26695   0.59856   0.93042
  Beta virt. eigenvalues --    0.93042   0.95650   1.21579   1.21579   1.44656
  Beta virt. eigenvalues --    1.59676   1.59676   1.74354   2.02277   2.45586

 Mulliken charges and spin densities:
               1          2
     1  H    0.254241   0.008402
     2  H    0.009448   0.941383
     3  F   -0.263689   0.050215
 Sum of Mulliken charges =   0.00000   1.00000

 Dipole moment (field-independent basis, Debye):
    X=             -1.6425    Y=              0.0000    Z=              0.0000  Tot=              1.6425
 Quadrupole moment (field-independent basis, Debye-Ang):
   XX=             -7.2938   YY=             -6.5767   ZZ=             -6.5767
   XY=              0.0000   XZ=              0.0000   YZ=              0.0000

  Exact polarizability:       8.493       0.000       2.567       0.000      -0.000       2.567
 Approx polarizability:       8.437       0.000       2.594      -0.000      -0.000       2.594

 ******    2 imaginary frequencies (negative Signs) ******

                      1                      2                      3
                      A                      A                      A
 Frequencies --  -2690.1117             -2690.1117              1208.0011
 Red. masses --      1.0251                 1.0251                 1.0538
 Frc consts  --      4.3710                 4.3710                 0.9060
 IR Inten    --    125.6740               125.6740                18.6997

                      4
                      A
 Frequencies --   7508.4387
 Red. masses --      1.0578
 Frc consts  --     35.1347
 IR Inten    --    132.9794

 - Thermochemistry -
 -------------------
 Temperature   298.150 Kelvin.  Pressure   1.00000 Atm.
 Atom     1 has atomic number  1 and mass   1.00783

 Molecular mass:    21.01405 amu.
 Principal axes and moments of inertia in atomic units:
                           1         2         3
     Eigenvalues --     0.00000  15.11514  15.11514
           X            1.00000  -0.00000   0.00000
           Y            0.00000   1.00000   0.00000
           Z            0.00000   0.00000   1.00000
 This molecule is a prolate symmetric top.
 Rotational symmetry number  1.
 Rotational temperature (Kelvin)      5.73028
 Rotational constant (GHZ):         119.399595
    2 imaginary frequencies ignored.
 Zero-point vibrational energy      52135.9 (Joules/Mol)
                                   12.46078 (Kcal/Mol)
 Vibrational temperatures:   1738.04 10802.97
          (Kelvin)

 Zero-point correction=                           0.019858 (Hartree/Particle)
 Thermal correction to Energy=                    0.022234
 Thermal correction to Enthalpy=                  0.023178
 Thermal correction to Gibbs Free Energy=         0.001168
 Sum of electronic and zero-point Energies=           -100.888845
 Sum of electronic and thermal Energies=              -100.886468
 Sum of electronic and thermal Enthalpies=            -100.885524
 Sum of electronic and thermal Free Energies=         -100.907535

                     E (Thermal)             CV                S
                      KCal/Mol        Cal/Mol-Kelvin    Cal/Mol-Kelvin
 Total                   13.952              5.168             46.326
 Electronic               0.000              0.000              1.377
 Translational            0.889              2.981             35.068
 Rotational               0.592              1.987              9.840
 Vibrational             12.471              0.200              0.040

 Normal termination of Gaussian 16 at Fri Aug 22 15:48:14 2025.
