 Gaussian 16, Revision C.01,
 Gaussian 16:  ES64L-G16RevC.01  3-Jul-2019

 -----------------------------------------
 # sp b3lyp/6-311g** Force nosymm scf=(qc)
 -----------------------------------------

 -------------------
 Title Card Required
 -------------------
 Symbolic Z-matrix:
 Charge =  0 Multiplicity = 2

                          Input orientation:
 ---------------------------------------------------------------------
 Center     Atomic      Atomic             Coordinates (Angstroms)
 Number     Number       Type             X           Y           Z
 ---------------------------------------------------------------------
      1          1           0        0.000000    0.000000    0.000000
      2          1           0       -4.000000    0.000000    0.000000
      3          9           0        2.800000    0.000000    0.000000
 ---------------------------------------------------------------------

 SCF Done:  E(UB3LYP) =  -100.762558236     a.u. after   23 cycles

 Alpha  occ. eigenvalues --  -24.73270  -1.19389  -0.52387  -0.43993  -0.43993
 Alpha  occ. eigenvalues --   -0.32546
 Alpha virt. eigenvalues --   -0.08498   0.23763   0.35993   0.89819   0.92758
 Alpha virt. eigenvalues --    0.92758   1.05006   1.24951   1.24951   1.24965
 Alpha virt. eigenvalues --    1.42951   1.42951   1.44846   2.14241   2.40160

  Beta  occ. eigenvalues --  -24.70302  -1.10899  -0.41025  -0.41025  -0.34277
  Beta virt. eigenvalues --   -0.24297  -0.05935   0.23783   0.38124   0.94198
  Beta virt. eigenvalues --    0.94198   0.98025   1.08361   1.23029   1.23029
  Beta virt. eigenvalues --    1.24572   1.46642   1.46758   1.46758   2.13729

 Mulliken charges and spin densities:
               1          2
     1  H    0.054325  -0.939367
     2  H    0.000163   0.999400
     3  F   -0.054488   0.939968
 Sum of Mulliken charges =  -0.00000   1.00000

 Dipole moment (field-independent basis, Debye):
    X=             -0.7848    Y=             -0.0000    Z=             -0.0000  Tot=              0.7848
 Quadrupole moment (field-independent basis, Debye-Ang):
   XX=             -8.7646   YY=             -7.5935   ZZ=             -7.5935
   XY=             -0.0000   XZ=             -0.0000   YZ=             -0.0000

  Exact polarizability:      31.196      -0.000       2.025      -0.000      -0.000       2.025
 Approx polarizability:      35.473      -0.000       1.924      -0.000       0.000       1.924

 ******    2 imaginary frequencies (negative Signs) ******

                      1                      2                      3
                      A                      A                      A
 Frequencies --   -447.3601               -69.2961               163.1897
 Red. masses --      1.0558                 1.0558                 1.0228
 Frc consts  --      0.1245                 0.0030                 0.0160
 IR Inten    --     54.9800                 0.0475                 2.8793

                      4
                      A
 Frequencies --    163.1897
 Red. masses --      1.0228
 Frc consts  --      0.0160
 IR Inten    --      2.8793

 - Thermochemistry -
 -------------------
 Temperature   298.150 Kelvin.  Pressure   1.00000 Atm.
 Atom     1 has atomic number  1 and mass   1.00783

 Molecular mass:    21.01405 amu.
 Principal axes and moments of inertia in atomic units:
                           1         2         3
     Eigenvalues --     0.00000 178.72693 178.72693
           X            1.00000  -0.00000   0.00000
           Y            0.00000   1.00000   0.00000
           Z            0.00000   0.00000   1.00000
 This molecule is a prolate symmetric top.
 Rotational symmetry number  1.
 Rotational temperature (Kelvin)      0.48462
 Rotational constant (GHZ):          10.097758
    2 imaginary frequencies ignored.
 Zero-point vibrational energy       1952.2 (Joules/Mol)
                                    0.46658 (Kcal/Mol)
 Warning -- explicit consideration of   2 degrees of freedom as
           vibrations may cause significant error
 Vibrational temperatures:    234.79   234.79
          (Kelvin)

 Zero-point correction=                           0.000744 (Hartree/Particle)
 Thermal correction to Energy=                    0.004345
 Thermal correction to Enthalpy=                  0.005290
 Thermal correction to Gibbs Free Energy=        -0.021422
 Sum of electronic and zero-point Energies=           -100.761815
 Sum of electronic and thermal Energies=              -100.758213
 Sum of electronic and thermal Enthalpies=            -100.757269
 Sum of electronic and thermal Free Energies=         -100.783980

                     E (Thermal)             CV                S
                      KCal/Mol        Cal/Mol-Kelvin    Cal/Mol-Kelvin
 Total                    2.727              8.743             56.219
 Electronic               0.000              0.000              1.377
 Translational            0.889              2.981             35.068
 Rotational               0.592              1.987             14.749
 Vibrational              1.246              3.775              5.025
 Vibration     1          0.623              1.888              2.512
 Vibration     2          0.623              1.888              2.512

 Normal termination of Gaussian 16 at Fri Aug 22 18:45:06 2025.
