 Gaussian 16, Revision C.01,
 Gaussian 16:  ES64L-G16RevC.01  3-Jul-2019

 -----------------------------------------
 # sp b3lyp/6-311g** Force nosymm scf=(qc)
 -----------------------------------------

 -------------------
 Title Card Required
 -------------------
 Symbolic Z-matrix:
 Charge =  0 Multiplicity = 2

                          Input orientation:
 ---------------------------------------------------------------------
 Center     Atomic      Atomic             Coordinates (Angstroms)
 Number     Number       Type             X           Y           Z
 ---------------------------------------------------------------------
      1          1           0        0.000000    0.000000    0.000000
      2          1           0       -0.650000    0.000000    0.000000
      3          9           0        1.950000    0.000000    0.000000
 ---------------------------------------------------------------------

 SCF Done:  E(UB3LYP) =  -100.926895923     a.u. after    6 cycles

 Alpha  occ. eigenvalues --  -24.74963  -1.21073  -0.55316  -0.46264  -0.45494
 Alpha  occ. eigenvalues --   -0.45494
 Alpha virt. eigenvalues --    0.09339   0.20050   0.47572   0.90407   0.90407
 Alpha virt. eigenvalues --    0.93023   1.08561   1.08561   1.17003   1.65793
 Alpha virt. eigenvalues --    1.83728   1.88252   1.88252   2.42576   3.68316

  Beta  occ. eigenvalues --  -24.71916  -1.12397  -0.47039  -0.42458  -0.42458
  Beta virt. eigenvalues --   -0.25527   0.10024   0.20639   0.48221   0.91770
  Beta virt. eigenvalues --    0.91770   1.00751   1.09201   1.09201   1.20655
  Beta virt. eigenvalues --    1.67035   1.84246   1.88540   1.88540   2.43313

 Mulliken charges and spin densities:
               1          2
     1  H    0.006763  -0.022792
     2  H    0.025383   0.068585
     3  F   -0.032146   0.954207
 Sum of Mulliken charges =   0.00000   1.00000

 Dipole moment (field-independent basis, Debye):
    X=             -0.3694    Y=             -0.0000    Z=              0.0000  Tot=              0.3694
 Quadrupole moment (field-independent basis, Debye-Ang):
   XX=             -5.9568   YY=             -6.7731   ZZ=             -6.7731
   XY=             -0.0000   XZ=              0.0000   YZ=             -0.0000

  Exact polarizability:      14.492       0.000       2.058      -0.000      -0.000       2.058
 Approx polarizability:      15.654      -0.000       2.127       0.000       0.000       2.127

 ******    2 imaginary frequencies (negative Signs) ******

                      1                      2                      3
                      A                      A                      A
 Frequencies --  -2029.0432             -2029.0432                97.3336
 Red. masses --      1.0098                 1.0098                 1.1085
 Frc consts  --      2.4496                 2.4496                 0.0062
 IR Inten    --      0.3453                 0.3453                22.0979

                      4
                      A
 Frequencies --   5920.3481
 Red. masses --      1.0078
 Frc consts  --     20.8128
 IR Inten    --    197.7246

 - Thermochemistry -
 -------------------
 Temperature   298.150 Kelvin.  Pressure   1.00000 Atm.
 Atom     1 has atomic number  1 and mass   1.00783

 Molecular mass:    21.01405 amu.
 Principal axes and moments of inertia in atomic units:
                           1         2         3
     Eigenvalues --     0.00000  34.44113  34.44113
           X            1.00000  -0.00000   0.00000
           Y            0.00000   1.00000   0.00000
           Z            0.00000   0.00000   1.00000
 This molecule is a prolate symmetric top.
 Rotational symmetry number  1.
 Rotational temperature (Kelvin)      2.51484
 Rotational constant (GHZ):          52.400750
    2 imaginary frequencies ignored.
 Zero-point vibrational energy      35993.7 (Joules/Mol)
                                    8.60271 (Kcal/Mol)
 Warning -- explicit consideration of   1 degrees of freedom as
           vibrations may cause significant error
 Vibrational temperatures:    140.04  8518.06
          (Kelvin)

 Zero-point correction=                           0.013709 (Hartree/Particle)
 Thermal correction to Energy=                    0.016809
 Thermal correction to Enthalpy=                  0.017754
 Thermal correction to Gibbs Free Energy=        -0.006682
 Sum of electronic and zero-point Energies=           -100.913187
 Sum of electronic and thermal Energies=              -100.910086
 Sum of electronic and thermal Enthalpies=            -100.909142
 Sum of electronic and thermal Free Energies=         -100.933578

                     E (Thermal)             CV                S
                      KCal/Mol        Cal/Mol-Kelvin    Cal/Mol-Kelvin
 Total                   10.548              6.919             51.429
 Electronic               0.000              0.000              1.377
 Translational            0.889              2.981             35.068
 Rotational               0.592              1.987             11.477
 Vibrational              9.067              1.951              3.507
 Vibration     1          0.603              1.951              3.507

 Normal termination of Gaussian 16 at Fri Aug 22 16:52:06 2025.
