 Gaussian 16, Revision C.01,
 Gaussian 16:  ES64L-G16RevC.01  3-Jul-2019

 -----------------------------------------
 # sp b3lyp/6-311g** Force nosymm scf=(qc)
 -----------------------------------------

 -------------------
 Title Card Required
 -------------------
 Symbolic Z-matrix:
 Charge =  0 Multiplicity = 2

                          Input orientation:
 ---------------------------------------------------------------------
 Center     Atomic      Atomic             Coordinates (Angstroms)
 Number     Number       Type             X           Y           Z
 ---------------------------------------------------------------------
      1          1           0        0.000000    0.000000    0.000000
      2          1           0       -3.250000    0.000000    0.000000
      3          9           0        1.250000    0.000000    0.000000
 ---------------------------------------------------------------------

 SCF Done:  E(UB3LYP) =  -100.913522575     a.u. after    6 cycles

 Alpha  occ. eigenvalues --  -24.64340  -1.11627  -0.46867  -0.37265  -0.37265
 Alpha  occ. eigenvalues --   -0.34134
 Alpha virt. eigenvalues --   -0.07277   0.22231   0.28803   0.93077   0.93077
 Alpha virt. eigenvalues --    1.01447   1.23191   1.23387   1.23387   1.24758
 Alpha virt. eigenvalues --    1.34278   1.34278   1.71399   2.13958   2.26724

  Beta  occ. eigenvalues --  -24.64331  -1.11603  -0.46839  -0.37256  -0.37256
  Beta virt. eigenvalues --   -0.09191  -0.05049   0.26188   0.38166   0.93076
  Beta virt. eigenvalues --    0.93076   1.01473   1.24464   1.34255   1.34255
  Beta virt. eigenvalues --    1.45923   1.46394   1.46394   1.71465   2.26617

 Mulliken charges and spin densities:
               1          2
     1  H    0.355527  -0.000287
     2  H    0.002367   0.997336
     3  F   -0.357894   0.002951
 Sum of Mulliken charges =   0.00000   1.00000

 Dipole moment (field-independent basis, Debye):
    X=             -2.3716    Y=              0.0000    Z=              0.0000  Tot=              2.3716
 Quadrupole moment (field-independent basis, Debye-Ang):
   XX=             -8.9722   YY=             -7.1648   ZZ=             -7.1648
   XY=              0.0000   XZ=              0.0000   YZ=             -0.0000

  Exact polarizability:      10.965      -0.000       2.305       0.000      -0.000       2.305
 Approx polarizability:      15.842      -0.000       2.255      -0.000       0.000       2.255

 ******    1 imaginary frequencies (negative Signs) ******

                      1                      2                      3
                      A                      A                      A
 Frequencies --    -87.0107               431.7341              1182.6918
 Red. masses --      1.0471                 1.0646                 1.0323
 Frc consts  --      0.0047                 0.1169                 0.8508
 IR Inten    --      1.0865                68.8402               138.8180

                      4
                      A
 Frequencies --   1182.6918
 Red. masses --      1.0323
 Frc consts  --      0.8508
 IR Inten    --    138.8180

 - Thermochemistry -
 -------------------
 Temperature   298.150 Kelvin.  Pressure   1.00000 Atm.
 Atom     1 has atomic number  1 and mass   1.00783

 Molecular mass:    21.01405 amu.
 Principal axes and moments of inertia in atomic units:
                           1         2         3
     Eigenvalues --     0.00000  72.79656  72.79656
           X            1.00000  -0.00000   0.00000
           Y            0.00000   1.00000   0.00000
           Z            0.00000   0.00000   1.00000
 This molecule is a prolate symmetric top.
 Rotational symmetry number  1.
 Rotational temperature (Kelvin)      1.18981
 Rotational constant (GHZ):          24.791573
    1 imaginary frequencies ignored.
 Zero-point vibrational energy      16730.5 (Joules/Mol)
                                    3.99868 (Kcal/Mol)
 Warning -- explicit consideration of   1 degrees of freedom as
           vibrations may cause significant error
 Vibrational temperatures:    621.17  1701.63  1701.63
          (Kelvin)

 Zero-point correction=                           0.006372 (Hartree/Particle)
 Thermal correction to Energy=                    0.009048
 Thermal correction to Enthalpy=                  0.009993
 Thermal correction to Gibbs Free Energy=        -0.013931
 Sum of electronic and zero-point Energies=           -100.907150
 Sum of electronic and thermal Energies=              -100.904474
 Sum of electronic and thermal Enthalpies=            -100.903530
 Sum of electronic and thermal Free Energies=         -100.927454

                     E (Thermal)             CV                S
                      KCal/Mol        Cal/Mol-Kelvin    Cal/Mol-Kelvin
 Total                    5.678              6.802             50.351
 Electronic               0.000              0.000              1.377
 Translational            0.889              2.981             35.068
 Rotational               0.592              1.987             12.964
 Vibrational              4.197              1.834              0.942
 Vibration     1          0.793              1.401              0.853

 Normal termination of Gaussian 16 at Fri Aug 22 16:13:26 2025.
