 Gaussian 16, Revision C.01,
 Gaussian 16:  ES64L-G16RevC.01  3-Jul-2019

 -----------------------------------------
 # sp b3lyp/6-311g** Force nosymm scf=(qc)
 -----------------------------------------

 -------------------
 Title Card Required
 -------------------
 Symbolic Z-matrix:
 Charge =  0 Multiplicity = 2

                          Input orientation:
 ---------------------------------------------------------------------
 Center     Atomic      Atomic             Coordinates (Angstroms)
 Number     Number       Type             X           Y           Z
 ---------------------------------------------------------------------
      1          1           0        0.000000    0.000000    0.000000
      2          1           0       -1.950000    0.000000    0.000000
      3          9           0        1.750000    0.000000    0.000000
 ---------------------------------------------------------------------

 SCF Done:  E(UB3LYP) =  -100.823098459     a.u. after   15 cycles

 Alpha  occ. eigenvalues --  -24.65927  -1.12196  -0.45202  -0.37784  -0.37784
 Alpha  occ. eigenvalues --   -0.37356
 Alpha virt. eigenvalues --   -0.13067   0.23287   0.29278   0.91998   0.94922
 Alpha virt. eigenvalues --    0.94922   1.04758   1.20344   1.20344   1.30581
 Alpha virt. eigenvalues --    1.33993   1.33993   1.70698   2.11372   2.29816

  Beta  occ. eigenvalues --  -24.64079  -1.07125  -0.39045  -0.35985  -0.35985
  Beta virt. eigenvalues --   -0.20356  -0.10392   0.25541   0.31349   0.94308
  Beta virt. eigenvalues --    0.94971   0.94971   1.08075   1.25423   1.25423
  Beta virt. eigenvalues --    1.35953   1.35953   1.41549   1.69133   2.13070

 Mulliken charges and spin densities:
               1          2
     1  H    0.213359  -0.469474
     2  H    0.052234   0.889489
     3  F   -0.265592   0.579985
 Sum of Mulliken charges =  -0.00000   1.00000

 Dipole moment (field-independent basis, Debye):
    X=             -2.7646    Y=             -0.0000    Z=             -0.0000  Tot=              2.7646
 Quadrupole moment (field-independent basis, Debye-Ang):
   XX=             -8.7945   YY=             -7.4493   ZZ=             -7.4493
   XY=             -0.0000   XZ=             -0.0000   YZ=             -0.0000

  Exact polarizability:      42.452      -0.000       2.132      -0.000      -0.000       2.132
 Approx polarizability:      54.827       0.000       2.041       0.000      -0.000       2.041

 ******    2 imaginary frequencies (negative Signs) ******

                      1                      2                      3
                      A                      A                      A
 Frequencies --  -1915.6446              -593.7889               787.6788
 Red. masses --      1.0301                 1.0828                 1.0193
 Frc consts  --      2.2271                 0.2249                 0.3726
 IR Inten    --    126.2776                13.3487                29.2008

                      4
                      A
 Frequencies --    787.6788
 Red. masses --      1.0193
 Frc consts  --      0.3726
 IR Inten    --     29.2008

 - Thermochemistry -
 -------------------
 Temperature   298.150 Kelvin.  Pressure   1.00000 Atm.
 Atom     1 has atomic number  1 and mass   1.00783

 Molecular mass:    21.01405 amu.
 Principal axes and moments of inertia in atomic units:
                           1         2         3
     Eigenvalues --     0.00000  55.16553  55.16553
           X            1.00000  -0.00000   0.00000
           Y            0.00000   1.00000   0.00000
           Z            0.00000   0.00000   1.00000
 This molecule is a prolate symmetric top.
 Rotational symmetry number  1.
 Rotational temperature (Kelvin)      1.57007
 Rotational constant (GHZ):          32.715014
    2 imaginary frequencies ignored.
 Zero-point vibrational energy       9422.7 (Joules/Mol)
                                    2.25209 (Kcal/Mol)
 Vibrational temperatures:   1133.29  1133.29
          (Kelvin)

 Zero-point correction=                           0.003589 (Hartree/Particle)
 Thermal correction to Energy=                    0.006113
 Thermal correction to Enthalpy=                  0.007058
 Thermal correction to Gibbs Free Energy=        -0.016363
 Sum of electronic and zero-point Energies=           -100.819510
 Sum of electronic and thermal Energies=              -100.816985
 Sum of electronic and thermal Enthalpies=            -100.816041
 Sum of electronic and thermal Free Energies=         -100.839462

                     E (Thermal)             CV                S
                      KCal/Mol        Cal/Mol-Kelvin    Cal/Mol-Kelvin
 Total                    3.836              6.311             49.294
 Electronic               0.000              0.000              1.377
 Translational            0.889              2.981             35.068
 Rotational               0.592              1.987             12.413
 Vibrational              2.355              1.343              0.435

 Normal termination of Gaussian 16 at Fri Aug 22 16:40:25 2025.
