 Gaussian 16, Revision C.01,
 Gaussian 16:  ES64L-G16RevC.01  3-Jul-2019

 -----------------------------------------
 # sp b3lyp/6-311g** Force nosymm scf=(qc)
 -----------------------------------------

 -------------------
 Title Card Required
 -------------------
 Symbolic Z-matrix:
 Charge =  0 Multiplicity = 2

                          Input orientation:
 ---------------------------------------------------------------------
 Center     Atomic      Atomic             Coordinates (Angstroms)
 Number     Number       Type             X           Y           Z
 ---------------------------------------------------------------------
      1          1           0        0.000000    0.000000    0.000000
      2          1           0       -1.400000    0.000000    0.000000
      3          9           0        3.600000    0.000000    0.000000
 ---------------------------------------------------------------------

 SCF Done:  E(UB3LYP) =  -100.836563940     a.u. after  268 cycles

 Alpha  occ. eigenvalues --  -24.76342  -1.22225  -0.55425  -0.46614  -0.46580
 Alpha  occ. eigenvalues --   -0.34356
 Alpha virt. eigenvalues --   -0.08103   0.24261   0.31351   0.85963   0.90840
 Alpha virt. eigenvalues --    0.91815   1.01126   1.10746   1.17935   1.17937
 Alpha virt. eigenvalues --    1.45132   1.45134   1.90042   2.25548   2.49863

  Beta  occ. eigenvalues --  -24.73185  -1.13149  -0.43450  -0.43415  -0.34354
  Beta virt. eigenvalues --   -0.26069  -0.08101   0.24268   0.31374   0.92340
  Beta virt. eigenvalues --    0.93311   0.95428   1.05245   1.10758   1.17934
  Beta virt. eigenvalues --    1.17937   1.45131   1.45134   1.90046   2.25549

 Mulliken charges and spin densities:
               1          2
     1  H    0.000660   0.000140
     2  H   -0.002844  -0.000395
     3  F    0.002184   1.000256
 Sum of Mulliken charges =   0.00000   1.00000

 Dipole moment (field-independent basis, Debye):
    X=              0.0415    Y=             -0.0000    Z=             -0.0000  Tot=              0.0415
 Quadrupole moment (field-independent basis, Debye-Ang):
   XX=             -6.2703   YY=             -6.8188   ZZ=             -7.6831
   XY=             -0.0000   XZ=              0.0000   YZ=             -0.0073

  Exact polarizability:      20.393      -0.000       2.524      -0.000      -0.004       2.058
 Approx polarizability:      36.000      -0.000       2.645       0.000      -0.005       2.063

 ******    2 imaginary frequencies (negative Signs) ******

                      1                      2                      3
                      A                      A                      A
 Frequencies --  -1167.5915               -47.4125              1310.7209
 Red. masses --      1.0078                 1.1085                 1.0104
 Frc consts  --      0.8095                 0.0015                 1.0228
 IR Inten    --      0.1584                 0.1280                 0.0024

                      4
                      A
 Frequencies --   1311.6627
 Red. masses --      1.0104
 Frc consts  --      1.0242
 IR Inten    --      0.0019

 - Thermochemistry -
 -------------------
 Temperature   298.150 Kelvin.  Pressure   1.00000 Atm.
 Atom     1 has atomic number  1 and mass   1.00783

 Molecular mass:    21.01405 amu.
 Principal axes and moments of inertia in atomic units:
                           1         2         3
     Eigenvalues --     0.00000 123.85236 123.85236
           X            1.00000  -0.00000   0.00000
           Y            0.00000   1.00000   0.00000
           Z            0.00000   0.00000   1.00000
 This molecule is a prolate symmetric top.
 Rotational symmetry number  1.
 Rotational temperature (Kelvin)      0.69933
 Rotational constant (GHZ):          14.571715
    2 imaginary frequencies ignored.
 Zero-point vibrational energy      15685.3 (Joules/Mol)
                                    3.74889 (Kcal/Mol)
 Vibrational temperatures:   1885.84  1887.19
          (Kelvin)

 Zero-point correction=                           0.005974 (Hartree/Particle)
 Thermal correction to Energy=                    0.008356
 Thermal correction to Enthalpy=                  0.009300
 Thermal correction to Gibbs Free Energy=        -0.014702
 Sum of electronic and zero-point Energies=           -100.830590
 Sum of electronic and thermal Energies=              -100.828208
 Sum of electronic and thermal Enthalpies=            -100.827264
 Sum of electronic and thermal Free Energies=         -100.851266

                     E (Thermal)             CV                S
                      KCal/Mol        Cal/Mol-Kelvin    Cal/Mol-Kelvin
 Total                    5.244              5.253             50.518
 Electronic               0.000              0.000              1.377
 Translational            0.889              2.981             35.068
 Rotational               0.592              1.987             14.020
 Vibrational              3.762              0.285              0.052

 Normal termination of Gaussian 16 at Fri Aug 22 22:57:30 2025.
