 Gaussian 16, Revision C.01,
 Gaussian 16:  ES64L-G16RevC.01  3-Jul-2019

 -----------------------------------------
 # sp b3lyp/6-311g** Force nosymm scf=(qc)
 -----------------------------------------

 -------------------
 Title Card Required
 -------------------
 Symbolic Z-matrix:
 Charge =  0 Multiplicity = 2

                          Input orientation:
 ---------------------------------------------------------------------
 Center     Atomic      Atomic             Coordinates (Angstroms)
 Number     Number       Type             X           Y           Z
 ---------------------------------------------------------------------
      1          1           0        0.000000    0.000000    0.000000
      2          1           0       -2.000000    0.000000    0.000000
      3          9           0        1.000000    0.000000    0.000000
 ---------------------------------------------------------------------

 SCF Done:  E(UB3LYP) =  -100.967059929     a.u. after    6 cycles

 Alpha  occ. eigenvalues --  -24.63797  -1.15779  -0.51696  -0.38487  -0.38487
 Alpha  occ. eigenvalues --   -0.36127
 Alpha virt. eigenvalues --    0.03844   0.24082   0.33890   0.94321   0.94321
 Alpha virt. eigenvalues --    0.98496   1.14396   1.21172   1.21172   1.36443
 Alpha virt. eigenvalues --    1.36443   1.49256   1.87010   2.18197   2.34802

  Beta  occ. eigenvalues --  -24.63717  -1.15579  -0.51251  -0.38417  -0.38417
  Beta virt. eigenvalues --   -0.12593   0.06191   0.33317   0.35064   0.94333
  Beta virt. eigenvalues --    0.94333   0.98918   1.23835   1.35512   1.35512
  Beta virt. eigenvalues --    1.41536   1.41536   1.57596   1.89753   2.34330

 Mulliken charges and spin densities:
               1          2
     1  H    0.305535   0.004598
     2  H    0.017323   0.973341
     3  F   -0.322858   0.022062
 Sum of Mulliken charges =   0.00000   1.00000

 Dipole moment (field-independent basis, Debye):
    X=             -2.2168    Y=             -0.0000    Z=              0.0000  Tot=              2.2168
 Quadrupole moment (field-independent basis, Debye-Ang):
   XX=             -7.7777   YY=             -6.9218   ZZ=             -6.9218
   XY=             -0.0000   XZ=              0.0000   YZ=             -0.0000

  Exact polarizability:      10.709       0.000       2.459      -0.000       0.000       2.459
 Approx polarizability:      11.772       0.000       2.440      -0.000       0.000       2.440

                      1                      2                      3
                      A                      A                      A
 Frequencies --     92.2863               938.2759               938.2759
 Red. masses --      1.0519                 1.0281                 1.0281
 Frc consts  --      0.0053                 0.5332                 0.5332
 IR Inten    --      3.2045               134.4601               134.4601

                      4
                      A
 Frequencies --   2972.8429
 Red. masses --      1.0597
 Frc consts  --      5.5180
 IR Inten    --    186.0690

 - Thermochemistry -
 -------------------
 Temperature   298.150 Kelvin.  Pressure   1.00000 Atm.
 Atom     1 has atomic number  1 and mass   1.00783

 Molecular mass:    21.01405 amu.
 Principal axes and moments of inertia in atomic units:
                           1         2         3
     Eigenvalues --     0.00000  33.22837  33.22837
           X            1.00000  -0.00000   0.00000
           Y            0.00000   1.00000   0.00000
           Z            0.00000   0.00000   1.00000
 This molecule is a prolate symmetric top.
 Rotational symmetry number  1.
 Rotational temperature (Kelvin)      2.60663
 Rotational constant (GHZ):          54.313255
 Zero-point vibrational energy      29557.8 (Joules/Mol)
                                    7.06449 (Kcal/Mol)
 Warning -- explicit consideration of   1 degrees of freedom as
           vibrations may cause significant error
 Vibrational temperatures:    132.78  1349.97  1349.97  4277.26
          (Kelvin)

 Zero-point correction=                           0.011258 (Hartree/Particle)
 Thermal correction to Energy=                    0.014461
 Thermal correction to Enthalpy=                  0.015406
 Thermal correction to Gibbs Free Energy=        -0.009160
 Sum of electronic and zero-point Energies=           -100.955802
 Sum of electronic and thermal Energies=              -100.952599
 Sum of electronic and thermal Enthalpies=            -100.951654
 Sum of electronic and thermal Free Energies=         -100.976220

                     E (Thermal)             CV                S
                      KCal/Mol        Cal/Mol-Kelvin    Cal/Mol-Kelvin
 Total                    9.075              7.823             51.702
 Electronic               0.000              0.000              1.377
 Translational            0.889              2.981             35.068
 Rotational               0.592              1.987             11.406
 Vibrational              7.593              2.855              3.851
 Vibration     1          0.602              1.955              3.611

 Normal termination of Gaussian 16 at Fri Aug 22 16:00:33 2025.
