 Gaussian 16, Revision C.01,
 Gaussian 16:  ES64L-G16RevC.01  3-Jul-2019

 -----------------------------------------
 # sp b3lyp/6-311g** Force nosymm scf=(qc)
 -----------------------------------------

 -------------------
 Title Card Required
 -------------------
 Symbolic Z-matrix:
 Charge =  0 Multiplicity = 2

                          Input orientation:
 ---------------------------------------------------------------------
 Center     Atomic      Atomic             Coordinates (Angstroms)
 Number     Number       Type             X           Y           Z
 ---------------------------------------------------------------------
      1          1           0        0.000000    0.000000    0.000000
      2          1           0       -2.100000    0.000000    0.000000
      3          9           0        1.300000    0.000000    0.000000
 ---------------------------------------------------------------------

 SCF Done:  E(UB3LYP) =  -100.903732927     a.u. after    7 cycles

 Alpha  occ. eigenvalues --  -24.63781  -1.10762  -0.46167  -0.36596  -0.36596
 Alpha  occ. eigenvalues --   -0.36523
 Alpha virt. eigenvalues --   -0.06839   0.23853   0.27585   0.93492   0.93492
 Alpha virt. eigenvalues --    1.02274   1.12569   1.20796   1.20796   1.34588
 Alpha virt. eigenvalues --    1.34588   1.37523   1.70900   2.11211   2.28288

  Beta  occ. eigenvalues --  -24.63594  -1.10283  -0.45304  -0.36424  -0.36424
  Beta virt. eigenvalues --   -0.15005  -0.03186   0.27286   0.34169   0.93469
  Beta virt. eigenvalues --    0.93469   1.02757   1.18867   1.33794   1.33794
  Beta virt. eigenvalues --    1.40230   1.40230   1.49444   1.71144   2.23121

 Mulliken charges and spin densities:
               1          2
     1  H    0.337347  -0.019931
     2  H    0.027584   0.962997
     3  F   -0.364932   0.056934
 Sum of Mulliken charges =  -0.00000   1.00000

 Dipole moment (field-independent basis, Debye):
    X=             -2.7112    Y=              0.0000    Z=             -0.0000  Tot=              2.7112
 Quadrupole moment (field-independent basis, Debye-Ang):
   XX=             -8.5436   YY=             -7.1733   ZZ=             -7.1733
   XY=              0.0000   XZ=             -0.0000   YZ=             -0.0000

  Exact polarizability:      18.138       0.000       2.323       0.000       0.000       2.323
 Approx polarizability:      24.085      -0.000       2.274       0.000       0.000       2.274

 ******    2 imaginary frequencies (negative Signs) ******

                      1                      2                      3
                      A                      A                      A
 Frequencies --   -985.6620              -160.7528              1122.6249
 Red. masses --      1.0299                 1.0830                 1.0247
 Frc consts  --      0.5895                 0.0165                 0.7609
 IR Inten    --    204.0249                 1.7703               102.0714

                      4
                      A
 Frequencies --   1122.6249
 Red. masses --      1.0247
 Frc consts  --      0.7609
 IR Inten    --    102.0714

 - Thermochemistry -
 -------------------
 Temperature   298.150 Kelvin.  Pressure   1.00000 Atm.
 Atom     1 has atomic number  1 and mass   1.00783

 Molecular mass:    21.01405 amu.
 Principal axes and moments of inertia in atomic units:
                           1         2         3
     Eigenvalues --     0.00000  43.87398  43.87398
           X            1.00000  -0.00000   0.00000
           Y            0.00000   1.00000   0.00000
           Z            0.00000   0.00000   1.00000
 This molecule is a prolate symmetric top.
 Rotational symmetry number  1.
 Rotational temperature (Kelvin)      1.97415
 Rotational constant (GHZ):          41.134662
    2 imaginary frequencies ignored.
 Zero-point vibrational energy      13429.6 (Joules/Mol)
                                    3.20975 (Kcal/Mol)
 Vibrational temperatures:   1615.21  1615.21
          (Kelvin)

 Zero-point correction=                           0.005115 (Hartree/Particle)
 Thermal correction to Energy=                    0.007521
 Thermal correction to Enthalpy=                  0.008465
 Thermal correction to Gibbs Free Energy=        -0.014587
 Sum of electronic and zero-point Energies=           -100.898618
 Sum of electronic and thermal Energies=              -100.896212
 Sum of electronic and thermal Enthalpies=            -100.895268
 Sum of electronic and thermal Free Energies=         -100.918320

                     E (Thermal)             CV                S
                      KCal/Mol        Cal/Mol-Kelvin    Cal/Mol-Kelvin
 Total                    4.720              5.490             48.517
 Electronic               0.000              0.000              1.377
 Translational            0.889              2.981             35.068
 Rotational               0.592              1.987             11.958
 Vibrational              3.238              0.522              0.114

 Normal termination of Gaussian 16 at Fri Aug 22 16:15:08 2025.
