 Gaussian 16, Revision C.01,
 Gaussian 16:  ES64L-G16RevC.01  3-Jul-2019

 -----------------------------------------
 # sp b3lyp/6-311g** Force nosymm scf=(qc)
 -----------------------------------------

 -------------------
 Title Card Required
 -------------------
 Symbolic Z-matrix:
 Charge =  0 Multiplicity = 2

                          Input orientation:
 ---------------------------------------------------------------------
 Center     Atomic      Atomic             Coordinates (Angstroms)
 Number     Number       Type             X           Y           Z
 ---------------------------------------------------------------------
      1          1           0        0.000000    0.000000    0.000000
      2          1           0       -3.500000    0.000000    0.000000
      3          9           0        1.500000    0.000000    0.000000
 ---------------------------------------------------------------------

 SCF Done:  E(UB3LYP) =  -100.854693199     a.u. after    7 cycles

 Alpha  occ. eigenvalues --  -24.64348  -1.09690  -0.43240  -0.36426  -0.36426
 Alpha  occ. eigenvalues --   -0.33992
 Alpha virt. eigenvalues --   -0.14468   0.20345   0.27700   0.93513   0.93513
 Alpha virt. eigenvalues --    1.03512   1.09474   1.23520   1.23520   1.23560
 Alpha virt. eigenvalues --    1.31175   1.31175   1.73086   2.13332   2.18776

  Beta  occ. eigenvalues --  -24.64315  -1.09601  -0.43160  -0.36394  -0.36394
  Beta virt. eigenvalues --   -0.14760  -0.06638   0.23285   0.38180   0.93499
  Beta virt. eigenvalues --    0.93499   1.03598   1.09487   1.31014   1.31014
  Beta virt. eigenvalues --    1.45762   1.46221   1.46221   1.73046   2.18042

 Mulliken charges and spin densities:
               1          2
     1  H    0.348695  -0.008715
     2  H    0.001905   0.997983
     3  F   -0.350600   0.010732
 Sum of Mulliken charges =  -0.00000   1.00000

 Dipole moment (field-independent basis, Debye):
    X=             -2.6164    Y=             -0.0000    Z=             -0.0000  Tot=              2.6164
 Quadrupole moment (field-independent basis, Debye-Ang):
   XX=             -9.8844   YY=             -7.3218   ZZ=             -7.3218
   XY=             -0.0000   XZ=             -0.0000   YZ=             -0.0000

  Exact polarizability:      15.545       0.000       2.187      -0.000      -0.000       2.187
 Approx polarizability:      29.043       0.000       2.112      -0.000       0.000       2.112

 ******    2 imaginary frequencies (negative Signs) ******

                      1                      2                      3
                      A                      A                      A
 Frequencies --  -1152.8666               -81.7067              1015.7776
 Red. masses --      1.0574                 1.0541                 1.0306
 Frc consts  --      0.8281                 0.0041                 0.6265
 IR Inten    --     44.9411                 0.2042               117.2702

                      4
                      A
 Frequencies --   1015.7776
 Red. masses --      1.0306
 Frc consts  --      0.6265
 IR Inten    --    117.2702

 - Thermochemistry -
 -------------------
 Temperature   298.150 Kelvin.  Pressure   1.00000 Atm.
 Atom     1 has atomic number  1 and mass   1.00783

 Molecular mass:    21.01405 amu.
 Principal axes and moments of inertia in atomic units:
                           1         2         3
     Eigenvalues --     0.00000  90.78034  90.78034
           X            1.00000  -0.00000   0.00000
           Y            0.00000   1.00000   0.00000
           Z            0.00000   0.00000   1.00000
 This molecule is a prolate symmetric top.
 Rotational symmetry number  1.
 Rotational temperature (Kelvin)      0.95410
 Rotational constant (GHZ):          19.880309
    2 imaginary frequencies ignored.
 Zero-point vibrational energy      12151.4 (Joules/Mol)
                                    2.90425 (Kcal/Mol)
 Vibrational temperatures:   1461.48  1461.48
          (Kelvin)

 Zero-point correction=                           0.004628 (Hartree/Particle)
 Thermal correction to Energy=                    0.007058
 Thermal correction to Enthalpy=                  0.008002
 Thermal correction to Gibbs Free Energy=        -0.015766
 Sum of electronic and zero-point Energies=           -100.850065
 Sum of electronic and thermal Energies=              -100.847635
 Sum of electronic and thermal Enthalpies=            -100.846691
 Sum of electronic and thermal Free Energies=         -100.870459

                     E (Thermal)             CV                S
                      KCal/Mol        Cal/Mol-Kelvin    Cal/Mol-Kelvin
 Total                    4.429              5.689             50.024
 Electronic               0.000              0.000              1.377
 Translational            0.889              2.981             35.068
 Rotational               0.592              1.987             13.403
 Vibrational              2.948              0.721              0.176

 Normal termination of Gaussian 16 at Fri Aug 22 16:26:37 2025.
