 Gaussian 16, Revision C.01,
 Gaussian 16:  ES64L-G16RevC.01  3-Jul-2019

 -----------------------------------------
 # sp b3lyp/6-311g** Force nosymm scf=(qc)
 -----------------------------------------

 -------------------
 Title Card Required
 -------------------
 Symbolic Z-matrix:
 Charge =  0 Multiplicity = 2

                          Input orientation:
 ---------------------------------------------------------------------
 Center     Atomic      Atomic             Coordinates (Angstroms)
 Number     Number       Type             X           Y           Z
 ---------------------------------------------------------------------
      1          1           0        0.000000    0.000000    0.000000
      2          1           0       -1.800000    0.000000    0.000000
      3          9           0        0.750000    0.000000    0.000000
 ---------------------------------------------------------------------

 SCF Done:  E(UB3LYP) =  -100.920941824     a.u. after    6 cycles

 Alpha  occ. eigenvalues --  -24.63267  -1.25371  -0.57598  -0.41042  -0.41042
 Alpha  occ. eigenvalues --   -0.35826
 Alpha virt. eigenvalues --    0.10761   0.23290   0.46807   0.94018   0.94018
 Alpha virt. eigenvalues --    0.96902   1.19971   1.20913   1.20913   1.42550
 Alpha virt. eigenvalues --    1.42550   1.55670   2.01482   2.17049   2.74199

  Beta  occ. eigenvalues --  -24.63202  -1.25193  -0.57239  -0.40991  -0.40991
  Beta virt. eigenvalues --   -0.11620   0.12352   0.32857   0.48679   0.94040
  Beta virt. eigenvalues --    0.94040   0.97081   1.28859   1.37342   1.37342
  Beta virt. eigenvalues --    1.45404   1.45404   1.63112   2.05846   2.36230

 Mulliken charges and spin densities:
               1          2
     1  H    0.250673   0.011398
     2  H    0.013686   0.975943
     3  F   -0.264359   0.012659
 Sum of Mulliken charges =   0.00000   1.00000

 Dipole moment (field-independent basis, Debye):
    X=             -1.7739    Y=              0.0000    Z=             -0.0000  Tot=              1.7739
 Quadrupole moment (field-independent basis, Debye-Ang):
   XX=             -7.1357   YY=             -6.6616   ZZ=             -6.6616
   XY=              0.0000   XZ=             -0.0000   YZ=             -0.0000

  Exact polarizability:       7.424       0.000       2.515       0.000       0.000       2.515
 Approx polarizability:       7.372       0.000       2.512       0.000       0.000       2.512

 ******    2 imaginary frequencies (negative Signs) ******

                      1                      2                      3
                      A                      A                      A
 Frequencies --  -2652.9299             -2652.9299               455.4755
 Red. masses --      1.0310                 1.0310                 1.0533
 Frc consts  --      4.2753                 4.2753                 0.1287
 IR Inten    --    159.9748               159.9748                 0.0126

                      4
                      A
 Frequencies --   7572.4519
 Red. masses --      1.0583
 Frc consts  --     35.7536
 IR Inten    --    160.9409

 - Thermochemistry -
 -------------------
 Temperature   298.150 Kelvin.  Pressure   1.00000 Atm.
 Atom     1 has atomic number  1 and mass   1.00783

 Molecular mass:    21.01405 amu.
 Principal axes and moments of inertia in atomic units:
                           1         2         3
     Eigenvalues --     0.00000  23.54731  23.54731
           X            1.00000  -0.00000   0.00000
           Y            0.00000   1.00000   0.00000
           Z            0.00000   0.00000   1.00000
 This molecule is a prolate symmetric top.
 Rotational symmetry number  1.
 Rotational temperature (Kelvin)      3.67829
 Rotational constant (GHZ):          76.643213
    2 imaginary frequencies ignored.
 Zero-point vibrational energy      48017.7 (Joules/Mol)
                                   11.47650 (Kcal/Mol)
 Warning -- explicit consideration of   1 degrees of freedom as
           vibrations may cause significant error
 Vibrational temperatures:    655.33 10895.07
          (Kelvin)

 Zero-point correction=                           0.018289 (Hartree/Particle)
 Thermal correction to Energy=                    0.020909
 Thermal correction to Enthalpy=                  0.021853
 Thermal correction to Gibbs Free Energy=        -0.000928
 Sum of electronic and zero-point Energies=           -100.902653
 Sum of electronic and thermal Energies=              -100.900033
 Sum of electronic and thermal Enthalpies=            -100.899089
 Sum of electronic and thermal Free Energies=         -100.921870

                     E (Thermal)             CV                S
                      KCal/Mol        Cal/Mol-Kelvin    Cal/Mol-Kelvin
 Total                   13.120              6.317             47.946
 Electronic               0.000              0.000              1.377
 Translational            0.889              2.981             35.068
 Rotational               0.592              1.987             10.721
 Vibrational             11.639              1.349              0.779
 Vibration     1          0.814              1.349              0.779

 Normal termination of Gaussian 16 at Fri Aug 22 15:48:37 2025.
