 Gaussian 16, Revision C.01,
 Gaussian 16:  ES64L-G16RevC.01  3-Jul-2019

 -----------------------------------------
 # sp b3lyp/6-311g** Force nosymm scf=(qc)
 -----------------------------------------

 -------------------
 Title Card Required
 -------------------
 Symbolic Z-matrix:
 Charge =  0 Multiplicity = 2

                          Input orientation:
 ---------------------------------------------------------------------
 Center     Atomic      Atomic             Coordinates (Angstroms)
 Number     Number       Type             X           Y           Z
 ---------------------------------------------------------------------
      1          1           0        0.000000    0.000000    0.000000
      2          1           0       -0.550000    0.000000    0.000000
      3          9           0        2.300000    0.000000    0.000000
 ---------------------------------------------------------------------

 SCF Done:  E(UB3LYP) =  -100.893965263     a.u. after  156 cycles

 Alpha  occ. eigenvalues --  -24.76715  -1.22540  -0.55771  -0.48775  -0.46864
 Alpha  occ. eigenvalues --   -0.45802
 Alpha virt. eigenvalues --    0.10871   0.19777   0.54099   0.86140   0.90441
 Alpha virt. eigenvalues --    0.93906   1.11374   1.11416   1.15038   1.62277
 Alpha virt. eigenvalues --    1.82739   1.96507   1.96538   2.40744   3.64511

  Beta  occ. eigenvalues --  -24.73559  -1.13473  -0.48166  -0.43700  -0.43275
  Beta virt. eigenvalues --   -0.26395   0.11071   0.19950   0.54214   0.91923
  Beta virt. eigenvalues --    0.93920   0.97024   1.11456   1.11456   1.18740
  Beta virt. eigenvalues --    1.62362   1.82789   1.96525   1.96551   2.40824

 Mulliken charges and spin densities:
               1          2
     1  H   -0.013258  -0.003949
     2  H   -0.000272   0.004462
     3  F    0.013530   0.999488
 Sum of Mulliken charges =   0.00000   1.00000

 Dipole moment (field-independent basis, Debye):
    X=              0.1133    Y=              0.0001    Z=              0.0001  Tot=              0.1133
 Quadrupole moment (field-independent basis, Debye-Ang):
   XX=             -5.8957   YY=             -6.5669   ZZ=             -6.0825
   XY=             -0.1293   XZ=             -0.3079   YZ=              0.2470

  Exact polarizability:      71.747      -0.072       1.955      -0.172       0.119       2.188
 Approx polarizability:       7.391      -0.055       2.055      -0.131       0.154       2.358

 ******    3 imaginary frequencies (negative Signs) ******

                      1                      2                      3
                      A                      A                      A
 Frequencies --  -3737.0977             -3666.6543              -823.0862
 Red. masses --      1.0091                 1.0090                 1.1083
 Frc consts  --      8.3037                 7.9922                 0.4424
 IR Inten    --   1102.8340                 0.2449              1757.4308

                      4
                      A
 Frequencies --   8285.8199
 Red. masses --      1.0078
 Frc consts  --     40.7673
 IR Inten    --   2100.4819

 - Thermochemistry -
 -------------------
 Temperature   298.150 Kelvin.  Pressure   1.00000 Atm.
 Atom     1 has atomic number  1 and mass   1.00783

 Molecular mass:    21.01405 amu.
 Principal axes and moments of inertia in atomic units:
                           1         2         3
     Eigenvalues --     0.00000  43.69374  43.69374
           X            1.00000  -0.00000   0.00000
           Y            0.00000   1.00000   0.00000
           Z            0.00000   0.00000   1.00000
 This molecule is a prolate symmetric top.
 Rotational symmetry number  1.
 Rotational temperature (Kelvin)      1.98230
 Rotational constant (GHZ):          41.304347
    3 imaginary frequencies ignored.
 Zero-point vibrational energy      49560.2 (Joules/Mol)
                                   11.84517 (Kcal/Mol)
 Vibrational temperatures:  11921.45
          (Kelvin)

 Zero-point correction=                           0.018876 (Hartree/Particle)
 Thermal correction to Energy=                    0.021237
 Thermal correction to Enthalpy=                  0.022181
 Thermal correction to Gibbs Free Energy=        -0.000813
 Sum of electronic and zero-point Energies=           -100.875089
 Sum of electronic and thermal Energies=              -100.872728
 Sum of electronic and thermal Enthalpies=            -100.871784
 Sum of electronic and thermal Free Energies=         -100.894778

                     E (Thermal)             CV                S
                      KCal/Mol        Cal/Mol-Kelvin    Cal/Mol-Kelvin
 Total                   13.326              4.968             48.395
 Electronic               0.000              0.000              1.377
 Translational            0.889              2.981             35.068
 Rotational               0.592              1.987             11.950
 Vibrational             11.845              0.000              0.000

 Normal termination of Gaussian 16 at Fri Aug 22 17:19:22 2025.
