 Gaussian 16, Revision C.01,
 Gaussian 16:  ES64L-G16RevC.01  3-Jul-2019

 -----------------------------------------
 # sp b3lyp/6-311g** Force nosymm scf=(qc)
 -----------------------------------------

 -------------------
 Title Card Required
 -------------------
 Symbolic Z-matrix:
 Charge =  0 Multiplicity = 2

                          Input orientation:
 ---------------------------------------------------------------------
 Center     Atomic      Atomic             Coordinates (Angstroms)
 Number     Number       Type             X           Y           Z
 ---------------------------------------------------------------------
      1          1           0        0.000000    0.000000    0.000000
      2          1           0       -3.650000    0.000000    0.000000
      3          9           0        0.550000    0.000000    0.000000
 ---------------------------------------------------------------------

 SCF Done:  E(UB3LYP) =  -100.519214656     a.u. after    6 cycles

 Alpha  occ. eigenvalues --  -24.62695  -1.38437  -0.62259  -0.43637  -0.43637
 Alpha  occ. eigenvalues --   -0.33204
 Alpha virt. eigenvalues --    0.07729   0.24875   0.60259   0.91191   0.91210
 Alpha virt. eigenvalues --    0.91210   1.24141   1.24303   1.24303   1.35151
 Alpha virt. eigenvalues --    1.54130   1.54130   1.96758   2.14653   3.65595

  Beta  occ. eigenvalues --  -24.62695  -1.38436  -0.62259  -0.43637  -0.43637
  Beta virt. eigenvalues --   -0.05261   0.08052   0.38974   0.60256   0.91188
  Beta virt. eigenvalues --    0.91209   0.91209   1.34680   1.48951   1.49549
  Beta virt. eigenvalues --    1.49549   1.54131   1.54131   1.96708   2.45552

 Mulliken charges and spin densities:
               1          2
     1  H    0.200358   0.000388
     2  H    0.000550   0.999369
     3  F   -0.200908   0.000243
 Sum of Mulliken charges =   0.00000   1.00000

 Dipole moment (field-independent basis, Debye):
    X=             -1.3659    Y=              0.0000    Z=             -0.0000  Tot=              1.3659
 Quadrupole moment (field-independent basis, Debye-Ang):
   XX=             -6.8209   YY=             -6.4956   ZZ=             -6.4956
   XY=              0.0000   XZ=             -0.0000   YZ=              0.0000

  Exact polarizability:       3.119      -0.000       2.427       0.000      -0.000       2.427
 Approx polarizability:       3.318       0.000       2.404      -0.000      -0.000       2.404

 ******    3 imaginary frequencies (negative Signs) ******

                      1                      2                      3
                      A                      A                      A
 Frequencies --  -7514.2194             -7514.2194               -30.5534
 Red. masses --      1.0453                 1.0453                 1.0532
 Frc consts  --     34.7756                34.7756                 0.0006
 IR Inten    --    259.9242               259.9242                 0.0156

                      4
                      A
 Frequencies --  15777.8511
 Red. masses --      1.0583
 Frc consts  --    155.2241
 IR Inten    --     88.1853

 - Thermochemistry -
 -------------------
 Temperature   298.150 Kelvin.  Pressure   1.00000 Atm.
 Atom     1 has atomic number  1 and mass   1.00783

 Molecular mass:    21.01405 amu.
 Principal axes and moments of inertia in atomic units:
                           1         2         3
     Eigenvalues --     0.00000  60.68077  60.68077
           X            1.00000  -0.00000   0.00000
           Y            0.00000   1.00000   0.00000
           Z            0.00000   0.00000   1.00000
 This molecule is a prolate symmetric top.
 Rotational symmetry number  1.
 Rotational temperature (Kelvin)      1.42737
 Rotational constant (GHZ):          29.741569
    3 imaginary frequencies ignored.
 Zero-point vibrational energy      94372.5 (Joules/Mol)
                                   22.55557 (Kcal/Mol)
 Vibrational temperatures:  22700.81
          (Kelvin)

 Zero-point correction=                           0.035945 (Hartree/Particle)
 Thermal correction to Energy=                    0.038305
 Thermal correction to Enthalpy=                  0.039249
 Thermal correction to Gibbs Free Energy=         0.015945
 Sum of electronic and zero-point Energies=           -100.483270
 Sum of electronic and thermal Energies=              -100.480910
 Sum of electronic and thermal Enthalpies=            -100.479965
 Sum of electronic and thermal Free Energies=         -100.503270

                     E (Thermal)             CV                S
                      KCal/Mol        Cal/Mol-Kelvin    Cal/Mol-Kelvin
 Total                   24.037              4.968             49.048
 Electronic               0.000              0.000              1.377
 Translational            0.889              2.981             35.068
 Rotational               0.592              1.987             12.602
 Vibrational             22.556              0.000              0.000

 Normal termination of Gaussian 16 at Fri Aug 22 15:40:23 2025.
