 Gaussian 16, Revision C.01,
 Gaussian 16:  ES64L-G16RevC.01  3-Jul-2019

 -----------------------------------------
 # sp b3lyp/6-311g** Force nosymm scf=(qc)
 -----------------------------------------

 -------------------
 Title Card Required
 -------------------
 Symbolic Z-matrix:
 Charge =  0 Multiplicity = 2

                          Input orientation:
 ---------------------------------------------------------------------
 Center     Atomic      Atomic             Coordinates (Angstroms)
 Number     Number       Type             X           Y           Z
 ---------------------------------------------------------------------
      1          1           0        0.000000    0.000000    0.000000
      2          1           0       -3.550000    0.000000    0.000000
      3          9           0        3.750000    0.000000    0.000000
 ---------------------------------------------------------------------

 SCF Done:  E(UB3LYP) =  -100.758756702     a.u. after   31 cycles

 Alpha  occ. eigenvalues --  -24.75708  -1.21647  -0.54832  -0.46037  -0.46037
 Alpha  occ. eigenvalues --   -0.32282
 Alpha virt. eigenvalues --   -0.06686   0.24313   0.37466   0.86953   0.91280
 Alpha virt. eigenvalues --    0.91280   1.01330   1.25220   1.25220   1.25346
 Alpha virt. eigenvalues --    1.45514   1.45720   1.45720   2.15004   2.41351

  Beta  occ. eigenvalues --  -24.72573  -1.12636  -0.42895  -0.42895  -0.32584
  Beta virt. eigenvalues --   -0.25647  -0.06372   0.24115   0.38010   0.92775
  Beta virt. eigenvalues --    0.92775   0.96232   1.05414   1.24883   1.24883
  Beta virt. eigenvalues --    1.24992   1.46006   1.46225   1.46225   2.15066

 Mulliken charges and spin densities:
               1          2
     1  H    0.005457  -0.991974
     2  H    0.000095   0.998112
     3  F   -0.005552   0.993862
 Sum of Mulliken charges =  -0.00000   1.00000

 Dipole moment (field-independent basis, Debye):
    X=             -0.1090    Y=             -0.0000    Z=             -0.0000  Tot=              0.1090
 Quadrupole moment (field-independent basis, Debye-Ang):
   XX=             -7.0945   YY=             -7.6226   ZZ=             -7.6226
   XY=             -0.0000   XZ=             -0.0000   YZ=             -0.0000

  Exact polarizability:      16.673      -0.000       2.030       0.000       0.000       2.030
 Approx polarizability:      12.367      -0.000       1.935      -0.000       0.000       1.935

 ******    2 imaginary frequencies (negative Signs) ******

                      1                      2                      3
                      A                      A                      A
 Frequencies --   -202.9484               -85.7005                67.0729
 Red. masses --      1.0182                 1.0963                 1.0173
 Frc consts  --      0.0247                 0.0047                 0.0027
 IR Inten    --      3.3714                 0.8726                 0.0293

                      4
                      A
 Frequencies --     67.0730
 Red. masses --      1.0173
 Frc consts  --      0.0027
 IR Inten    --      0.0293

 - Thermochemistry -
 -------------------
 Temperature   298.150 Kelvin.  Pressure   1.00000 Atm.
 Atom     1 has atomic number  1 and mass   1.00783

 Molecular mass:    21.01405 amu.
 Principal axes and moments of inertia in atomic units:
                           1         2         3
     Eigenvalues --     0.00000 221.32649 221.32649
           X            1.00000  -0.00000   0.00000
           Y            0.00000   1.00000   0.00000
           Z            0.00000   0.00000   1.00000
 This molecule is a prolate symmetric top.
 Rotational symmetry number  1.
 Rotational temperature (Kelvin)      0.39134
 Rotational constant (GHZ):           8.154203
    2 imaginary frequencies ignored.
 Zero-point vibrational energy        802.4 (Joules/Mol)
                                    0.19177 (Kcal/Mol)
 Warning -- explicit consideration of   2 degrees of freedom as
           vibrations may cause significant error
 Vibrational temperatures:     96.50    96.50
          (Kelvin)

 Zero-point correction=                           0.000306 (Hartree/Particle)
 Thermal correction to Energy=                    0.004265
 Thermal correction to Enthalpy=                  0.005209
 Thermal correction to Gibbs Free Energy=        -0.023343
 Sum of electronic and zero-point Energies=           -100.758451
 Sum of electronic and thermal Energies=              -100.754491
 Sum of electronic and thermal Enthalpies=            -100.753547
 Sum of electronic and thermal Free Energies=         -100.782100

                     E (Thermal)             CV                S
                      KCal/Mol        Cal/Mol-Kelvin    Cal/Mol-Kelvin
 Total                    2.677              8.908             60.094
 Electronic               0.000              0.000              1.377
 Translational            0.889              2.981             35.068
 Rotational               0.592              1.987             15.174
 Vibrational              1.195              3.940              8.475
 Vibration     1          0.598              1.970              4.237
 Vibration     2          0.598              1.970              4.237

 Normal termination of Gaussian 16 at Sat Aug 23 00:27:54 2025.
