 Gaussian 16, Revision C.01,
 Gaussian 16:  ES64L-G16RevC.01  3-Jul-2019

 -----------------------------------------
 # sp b3lyp/6-311g** Force nosymm scf=(qc)
 -----------------------------------------

 -------------------
 Title Card Required
 -------------------
 Symbolic Z-matrix:
 Charge =  0 Multiplicity = 2

                          Input orientation:
 ---------------------------------------------------------------------
 Center     Atomic      Atomic             Coordinates (Angstroms)
 Number     Number       Type             X           Y           Z
 ---------------------------------------------------------------------
      1          1           0        0.000000    0.000000    0.000000
      2          1           0       -2.950000    0.000000    0.000000
      3          9           0        0.850000    0.000000    0.000000
 ---------------------------------------------------------------------

 SCF Done:  E(UB3LYP) =  -100.965611883     a.u. after    6 cycles

 Alpha  occ. eigenvalues --  -24.63831  -1.20880  -0.54998  -0.40112  -0.40112
 Alpha  occ. eigenvalues --   -0.34092
 Alpha virt. eigenvalues --    0.04580   0.25287   0.42437   0.94359   0.94359
 Alpha virt. eigenvalues --    0.97397   1.22232   1.23440   1.23440   1.33160
 Alpha virt. eigenvalues --    1.38383   1.38383   2.03455   2.14695   2.42956

  Beta  occ. eigenvalues --  -24.63827  -1.20869  -0.54984  -0.40108  -0.40108
  Beta virt. eigenvalues --   -0.06981   0.05728   0.38757   0.42651   0.94360
  Beta virt. eigenvalues --    0.94360   0.97387   1.30246   1.38381   1.38381
  Beta virt. eigenvalues --    1.49474   1.49474   1.50645   2.03604   2.42376

 Mulliken charges and spin densities:
               1          2
     1  H    0.282656   0.001605
     2  H    0.002429   0.996691
     3  F   -0.285085   0.001704
 Sum of Mulliken charges =   0.00000   1.00000

 Dipole moment (field-independent basis, Debye):
    X=             -1.8435    Y=             -0.0000    Z=              0.0000  Tot=              1.8435
 Quadrupole moment (field-independent basis, Debye-Ang):
   XX=             -7.6604   YY=             -6.8185   ZZ=             -6.8185
   XY=             -0.0000   XZ=              0.0000   YZ=              0.0000

  Exact polarizability:       5.882      -0.000       2.447       0.000       0.000       2.447
 Approx polarizability:       6.496      -0.000       2.429      -0.000      -0.000       2.429

 ******    3 imaginary frequencies (negative Signs) ******

                      1                      2                      3
                      A                      A                      A
 Frequencies --  -1319.2197             -1319.2197               -52.3959
 Red. masses --      1.0368                 1.0368                 1.0532
 Frc consts  --      1.0631                 1.0631                 0.0017
 IR Inten    --    182.8962               182.8962                 0.1723

                      4
                      A
 Frequencies --   5310.2755
 Red. masses --      1.0583
 Frc consts  --     17.5836
 IR Inten    --    112.3670

 - Thermochemistry -
 -------------------
 Temperature   298.150 Kelvin.  Pressure   1.00000 Atm.
 Atom     1 has atomic number  1 and mass   1.00783

 Molecular mass:    21.01405 amu.
 Principal axes and moments of inertia in atomic units:
                           1         2         3
     Eigenvalues --     0.00000  50.83777  50.83777
           X            1.00000  -0.00000   0.00000
           Y            0.00000   1.00000   0.00000
           Z            0.00000   0.00000   1.00000
 This molecule is a prolate symmetric top.
 Rotational symmetry number  1.
 Rotational temperature (Kelvin)      1.70373
 Rotational constant (GHZ):          35.500004
    3 imaginary frequencies ignored.
 Zero-point vibrational energy      31762.5 (Joules/Mol)
                                    7.59142 (Kcal/Mol)
 Vibrational temperatures:   7640.30
          (Kelvin)

 Zero-point correction=                           0.012098 (Hartree/Particle)
 Thermal correction to Energy=                    0.014458
 Thermal correction to Enthalpy=                  0.015402
 Thermal correction to Gibbs Free Energy=        -0.007735
 Sum of electronic and zero-point Energies=           -100.953514
 Sum of electronic and thermal Energies=              -100.951154
 Sum of electronic and thermal Enthalpies=            -100.950210
 Sum of electronic and thermal Free Energies=         -100.973347

                     E (Thermal)             CV                S
                      KCal/Mol        Cal/Mol-Kelvin    Cal/Mol-Kelvin
 Total                    9.073              4.968             48.696
 Electronic               0.000              0.000              1.377
 Translational            0.889              2.981             35.068
 Rotational               0.592              1.987             12.251
 Vibrational              7.591              0.000              0.000

 Normal termination of Gaussian 16 at Fri Aug 22 15:54:04 2025.
