 Gaussian 16, Revision C.01,
 Gaussian 16:  ES64L-G16RevC.01  3-Jul-2019

 -----------------------------------------
 # sp b3lyp/6-311g** Force nosymm scf=(qc)
 -----------------------------------------

 -------------------
 Title Card Required
 -------------------
 Symbolic Z-matrix:
 Charge =  0 Multiplicity = 2

                          Input orientation:
 ---------------------------------------------------------------------
 Center     Atomic      Atomic             Coordinates (Angstroms)
 Number     Number       Type             X           Y           Z
 ---------------------------------------------------------------------
      1          1           0        0.000000    0.000000    0.000000
      2          1           0       -2.950000    0.000000    0.000000
      3          9           0        2.900000    0.000000    0.000000
 ---------------------------------------------------------------------

 SCF Done:  E(UB3LYP) =  -100.762836206     a.u. after   20 cycles

 Alpha  occ. eigenvalues --  -24.73727  -1.19812  -0.52844  -0.44373  -0.44373
 Alpha  occ. eigenvalues --   -0.32823
 Alpha virt. eigenvalues --   -0.09455   0.24658   0.34825   0.89772   0.92491
 Alpha virt. eigenvalues --    0.92491   1.04543   1.24722   1.24722   1.25666
 Alpha virt. eigenvalues --    1.41918   1.41918   1.42618   2.15467   2.38291

  Beta  occ. eigenvalues --  -24.70726  -1.11218  -0.41371  -0.41371  -0.34020
  Beta virt. eigenvalues --   -0.24573  -0.07812   0.24793   0.36516   0.93943
  Beta virt. eigenvalues --    0.93943   0.98335   1.08258   1.23346   1.23346
  Beta virt. eigenvalues --    1.24703   1.44422   1.44422   1.44470   2.15805

 Mulliken charges and spin densities:
               1          2
     1  H    0.042457  -0.942280
     2  H    0.002135   0.991589
     3  F   -0.044592   0.950691
 Sum of Mulliken charges =  -0.00000   1.00000

 Dipole moment (field-independent basis, Debye):
    X=             -0.6937    Y=             -0.0000    Z=             -0.0000  Tot=              0.6937
 Quadrupole moment (field-independent basis, Debye-Ang):
   XX=             -8.3763   YY=             -7.6189   ZZ=             -7.6189
   XY=             -0.0000   XZ=             -0.0000   YZ=              0.0000

  Exact polarizability:      36.086      -0.000       2.020      -0.000      -0.000       2.020
 Approx polarizability:      36.703      -0.000       1.923      -0.000       0.000       1.923

 ******    2 imaginary frequencies (negative Signs) ******

                      1                      2                      3
                      A                      A                      A
 Frequencies --   -485.6363              -202.6567               181.0202
 Red. masses --      1.0274                 1.0858                 1.0182
 Frc consts  --      0.1428                 0.0263                 0.0197
 IR Inten    --     41.0480                 6.4403                 1.6036

                      4
                      A
 Frequencies --    181.0202
 Red. masses --      1.0182
 Frc consts  --      0.0197
 IR Inten    --      1.6036

 - Thermochemistry -
 -------------------
 Temperature   298.150 Kelvin.  Pressure   1.00000 Atm.
 Atom     1 has atomic number  1 and mass   1.00783

 Molecular mass:    21.01405 amu.
 Principal axes and moments of inertia in atomic units:
                           1         2         3
     Eigenvalues --     0.00000 140.21951 140.21951
           X            1.00000  -0.00000   0.00000
           Y            0.00000   1.00000   0.00000
           Z            0.00000   0.00000   1.00000
 This molecule is a prolate symmetric top.
 Rotational symmetry number  1.
 Rotational temperature (Kelvin)      0.61770
 Rotational constant (GHZ):          12.870828
    2 imaginary frequencies ignored.
 Zero-point vibrational energy       2165.5 (Joules/Mol)
                                    0.51756 (Kcal/Mol)
 Warning -- explicit consideration of   2 degrees of freedom as
           vibrations may cause significant error
 Vibrational temperatures:    260.45   260.45
          (Kelvin)

 Zero-point correction=                           0.000825 (Hartree/Particle)
 Thermal correction to Energy=                    0.004367
 Thermal correction to Enthalpy=                  0.005312
 Thermal correction to Gibbs Free Energy=        -0.020986
 Sum of electronic and zero-point Energies=           -100.762011
 Sum of electronic and thermal Energies=              -100.758469
 Sum of electronic and thermal Enthalpies=            -100.757525
 Sum of electronic and thermal Free Energies=         -100.783822

                     E (Thermal)             CV                S
                      KCal/Mol        Cal/Mol-Kelvin    Cal/Mol-Kelvin
 Total                    2.741              8.699             55.348
 Electronic               0.000              0.000              1.377
 Translational            0.889              2.981             35.068
 Rotational               0.592              1.987             14.267
 Vibrational              1.259              3.731              4.636
 Vibration     1          0.630              1.866              2.318
 Vibration     2          0.630              1.866              2.318

 Normal termination of Gaussian 16 at Fri Aug 22 19:04:13 2025.
