 Gaussian 16, Revision C.01,
 Gaussian 16:  ES64L-G16RevC.01  3-Jul-2019

 -----------------------------------------
 # sp b3lyp/6-311g** Force nosymm scf=(qc)
 -----------------------------------------

 -------------------
 Title Card Required
 -------------------
 Symbolic Z-matrix:
 Charge =  0 Multiplicity = 2

                          Input orientation:
 ---------------------------------------------------------------------
 Center     Atomic      Atomic             Coordinates (Angstroms)
 Number     Number       Type             X           Y           Z
 ---------------------------------------------------------------------
      1          1           0        0.000000    0.000000    0.000000
      2          1           0       -3.050000    0.000000    0.000000
      3          9           0        1.300000    0.000000    0.000000
 ---------------------------------------------------------------------

 SCF Done:  E(UB3LYP) =  -100.901437802     a.u. after    7 cycles

 Alpha  occ. eigenvalues --  -24.64315  -1.11074  -0.46037  -0.37022  -0.37022
 Alpha  occ. eigenvalues --   -0.34428
 Alpha virt. eigenvalues --   -0.08757   0.22300   0.28192   0.93053   0.93053
 Alpha virt. eigenvalues --    1.02087   1.21601   1.23097   1.23097   1.23910
 Alpha virt. eigenvalues --    1.33864   1.33864   1.71094   2.13941   2.25036

  Beta  occ. eigenvalues --  -24.64296  -1.11025  -0.45977  -0.37004  -0.37004
  Beta virt. eigenvalues --   -0.10638  -0.05652   0.25766   0.37688   0.93049
  Beta virt. eigenvalues --    0.93049   1.02138   1.22119   1.33813   1.33813
  Beta virt. eigenvalues --    1.45208   1.45608   1.45608   1.71217   2.24976

 Mulliken charges and spin densities:
               1          2
     1  H    0.355834  -0.001418
     2  H    0.004004   0.995473
     3  F   -0.359838   0.005945
 Sum of Mulliken charges =   0.00000   1.00000

 Dipole moment (field-independent basis, Debye):
    X=             -2.4503    Y=              0.0000    Z=              0.0000  Tot=              2.4503
 Quadrupole moment (field-independent basis, Debye-Ang):
   XX=             -9.0722   YY=             -7.2000   ZZ=             -7.2000
   XY=              0.0000   XZ=              0.0000   YZ=              0.0000

  Exact polarizability:      12.569      -0.000       2.285       0.000       0.000       2.285
 Approx polarizability:      18.561       0.000       2.230      -0.000      -0.000       2.230

 ******    2 imaginary frequencies (negative Signs) ******

                      1                      2                      3
                      A                      A                      A
 Frequencies --   -633.1107              -104.4809              1151.6438
 Red. masses --      1.0525                 1.0591                 1.0306
 Frc consts  --      0.2485                 0.0068                 0.8054
 IR Inten    --     74.6446                 0.0959               131.3442

                      4
                      A
 Frequencies --   1151.6438
 Red. masses --      1.0306
 Frc consts  --      0.8054
 IR Inten    --    131.3442

 - Thermochemistry -
 -------------------
 Temperature   298.150 Kelvin.  Pressure   1.00000 Atm.
 Atom     1 has atomic number  1 and mass   1.00783

 Molecular mass:    21.01405 amu.
 Principal axes and moments of inertia in atomic units:
                           1         2         3
     Eigenvalues --     0.00000  68.67452  68.67452
           X            1.00000  -0.00000   0.00000
           Y            0.00000   1.00000   0.00000
           Z            0.00000   0.00000   1.00000
 This molecule is a prolate symmetric top.
 Rotational symmetry number  1.
 Rotational temperature (Kelvin)      1.26122
 Rotational constant (GHZ):          26.279634
    2 imaginary frequencies ignored.
 Zero-point vibrational energy      13776.7 (Joules/Mol)
                                    3.29271 (Kcal/Mol)
 Vibrational temperatures:   1656.96  1656.96
          (Kelvin)

 Zero-point correction=                           0.005247 (Hartree/Particle)
 Thermal correction to Energy=                    0.007648
 Thermal correction to Enthalpy=                  0.008593
 Thermal correction to Gibbs Free Energy=        -0.014876
 Sum of electronic and zero-point Energies=           -100.896191
 Sum of electronic and thermal Energies=              -100.893789
 Sum of electronic and thermal Enthalpies=            -100.892845
 Sum of electronic and thermal Free Energies=         -100.916314

                     E (Thermal)             CV                S
                      KCal/Mol        Cal/Mol-Kelvin    Cal/Mol-Kelvin
 Total                    4.799              5.445             49.395
 Electronic               0.000              0.000              1.377
 Translational            0.889              2.981             35.068
 Rotational               0.592              1.987             12.848
 Vibrational              3.318              0.477              0.101

 Normal termination of Gaussian 16 at Fri Aug 22 16:15:46 2025.
