 Gaussian 16, Revision C.01,
 Gaussian 16:  ES64L-G16RevC.01  3-Jul-2019

 -----------------------------------------
 # sp b3lyp/6-311g** Force nosymm scf=(qc)
 -----------------------------------------

 -------------------
 Title Card Required
 -------------------
 Symbolic Z-matrix:
 Charge =  0 Multiplicity = 2

                          Input orientation:
 ---------------------------------------------------------------------
 Center     Atomic      Atomic             Coordinates (Angstroms)
 Number     Number       Type             X           Y           Z
 ---------------------------------------------------------------------
      1          1           0        0.000000    0.000000    0.000000
      2          1           0       -1.700000    0.000000    0.000000
      3          9           0        3.000000    0.000000    0.000000
 ---------------------------------------------------------------------

 SCF Done:  E(UB3LYP) =  -100.796177710     a.u. after   28 cycles

 Alpha  occ. eigenvalues --  -24.74767  -1.20776  -0.53893  -0.45254  -0.45254
 Alpha  occ. eigenvalues --   -0.34140
 Alpha virt. eigenvalues --   -0.11486   0.25065   0.30379   0.89571   0.91833
 Alpha virt. eigenvalues --    0.91833   1.03820   1.07008   1.22726   1.22726
 Alpha virt. eigenvalues --    1.37123   1.37123   1.66815   2.15877   2.41780

  Beta  occ. eigenvalues --  -24.71707  -1.11997  -0.42190  -0.42190  -0.34004
  Beta virt. eigenvalues --   -0.25319  -0.11178   0.25593   0.30601   0.93301
  Beta virt. eigenvalues --    0.93301   0.98230   1.06442   1.08667   1.22885
  Beta virt. eigenvalues --    1.22885   1.37436   1.37436   1.67217   2.16805

 Mulliken charges and spin densities:
               1          2
     1  H    0.006590  -0.600699
     2  H    0.019162   0.631053
     3  F   -0.025751   0.969646
 Sum of Mulliken charges =   0.00000   1.00000

 Dipole moment (field-independent basis, Debye):
    X=             -0.5496    Y=              0.0000    Z=              0.0000  Tot=              0.5496
 Quadrupole moment (field-independent basis, Debye-Ang):
   XX=             -6.6819   YY=             -7.7439   ZZ=             -7.7439
   XY=              0.0000   XZ=              0.0000   YZ=              0.0000

  Exact polarizability:      58.964       0.000       2.018       0.000       0.000       2.018
 Approx polarizability:      65.943       0.000       1.973       0.000      -0.000       1.973

 ******    2 imaginary frequencies (negative Signs) ******

                      1                      2                      3
                      A                      A                      A
 Frequencies --  -1915.3856              -217.9525               891.4644
 Red. masses --      1.0079                 1.1084                 1.0125
 Frc consts  --      2.1786                 0.0310                 0.4741
 IR Inten    --    110.1770                24.6653                 0.0008

                      4
                      A
 Frequencies --    891.4644
 Red. masses --      1.0125
 Frc consts  --      0.4741
 IR Inten    --      0.0008

 - Thermochemistry -
 -------------------
 Temperature   298.150 Kelvin.  Pressure   1.00000 Atm.
 Atom     1 has atomic number  1 and mass   1.00783

 Molecular mass:    21.01405 amu.
 Principal axes and moments of inertia in atomic units:
                           1         2         3
     Eigenvalues --     0.00000 101.65931 101.65931
           X            1.00000  -0.00000   0.00000
           Y            0.00000   1.00000   0.00000
           Z            0.00000   0.00000   1.00000
 This molecule is a prolate symmetric top.
 Rotational symmetry number  1.
 Rotational temperature (Kelvin)      0.85200
 Rotational constant (GHZ):          17.752837
    2 imaginary frequencies ignored.
 Zero-point vibrational energy      10664.3 (Joules/Mol)
                                    2.54882 (Kcal/Mol)
 Vibrational temperatures:   1282.62  1282.62
          (Kelvin)

 Zero-point correction=                           0.004062 (Hartree/Particle)
 Thermal correction to Energy=                    0.006534
 Thermal correction to Enthalpy=                  0.007478
 Thermal correction to Gibbs Free Energy=        -0.016451
 Sum of electronic and zero-point Energies=           -100.792116
 Sum of electronic and thermal Energies=              -100.789644
 Sum of electronic and thermal Enthalpies=            -100.788700
 Sum of electronic and thermal Free Energies=         -100.812628

                     E (Thermal)             CV                S
                      KCal/Mol        Cal/Mol-Kelvin    Cal/Mol-Kelvin
 Total                    4.100              5.992             50.362
 Electronic               0.000              0.000              1.377
 Translational            0.889              2.981             35.068
 Rotational               0.592              1.987             13.628
 Vibrational              2.619              1.024              0.289

 Normal termination of Gaussian 16 at Fri Aug 22 19:31:01 2025.
