 Gaussian 16, Revision C.01,
 Gaussian 16:  ES64L-G16RevC.01  3-Jul-2019

 -----------------------------------------
 # sp b3lyp/6-311g** Force nosymm scf=(qc)
 -----------------------------------------

 -------------------
 Title Card Required
 -------------------
 Symbolic Z-matrix:
 Charge =  0 Multiplicity = 2

                          Input orientation:
 ---------------------------------------------------------------------
 Center     Atomic      Atomic             Coordinates (Angstroms)
 Number     Number       Type             X           Y           Z
 ---------------------------------------------------------------------
      1          1           0        0.000000    0.000000    0.000000
      2          1           0       -0.950000    0.000000    0.000000
      3          9           0        2.500000    0.000000    0.000000
 ---------------------------------------------------------------------

 SCF Done:  E(UB3LYP) =  -100.915202230     a.u. after    8 cycles

 Alpha  occ. eigenvalues --  -24.75759  -1.21693  -0.54977  -0.46093  -0.46093
 Alpha  occ. eigenvalues --   -0.40488
 Alpha virt. eigenvalues --    0.01457   0.21057   0.40725   0.89667   0.91119
 Alpha virt. eigenvalues --    0.91119   1.07809   1.07809   1.10488   1.41259
 Alpha virt. eigenvalues --    1.68132   1.68132   2.21633   2.37121   2.63939

  Beta  occ. eigenvalues --  -24.72656  -1.12785  -0.42985  -0.42985  -0.40396
  Beta virt. eigenvalues --   -0.26095   0.01935   0.21347   0.41112   0.92586
  Beta virt. eigenvalues --    0.92586   0.98055   1.08017   1.08017   1.14736
  Beta virt. eigenvalues --    1.41636   1.68282   1.68282   2.21917   2.37315

 Mulliken charges and spin densities:
               1          2
     1  H   -0.010322  -0.014994
     2  H    0.020045   0.033831
     3  F   -0.009723   0.981163
 Sum of Mulliken charges =   0.00000   1.00000

 Dipole moment (field-independent basis, Debye):
    X=             -0.2177    Y=              0.0000    Z=              0.0000  Tot=              0.2177
 Quadrupole moment (field-independent basis, Debye-Ang):
   XX=             -5.7555   YY=             -7.2006   ZZ=             -7.2006
   XY=              0.0000   XZ=              0.0000   YZ=             -0.0000

  Exact polarizability:      20.108      -0.000       2.065       0.000       0.000       2.065
 Approx polarizability:      22.842      -0.000       2.124       0.000       0.000       2.124

 ******    1 imaginary frequencies (negative Signs) ******

                      1                      2                      3
                      A                      A                      A
 Frequencies --   -177.0086              1494.1680              1494.1680
 Red. masses --      1.1085                 1.0103                 1.0103
 Frc consts  --      0.0205                 1.3290                 1.3290
 IR Inten    --      9.1418                 0.2705                 0.2705

                      4
                      A
 Frequencies --   2148.9727
 Red. masses --      1.0079
 Frc consts  --      2.7423
 IR Inten    --     85.7566

 - Thermochemistry -
 -------------------
 Temperature   298.150 Kelvin.  Pressure   1.00000 Atm.
 Atom     1 has atomic number  1 and mass   1.00783

 Molecular mass:    21.01405 amu.
 Principal axes and moments of inertia in atomic units:
                           1         2         3
     Eigenvalues --     0.00000  59.22029  59.22029
           X            1.00000  -0.00000   0.00000
           Y            0.00000   1.00000   0.00000
           Z            0.00000   0.00000   1.00000
 This molecule is a prolate symmetric top.
 Rotational symmetry number  1.
 Rotational temperature (Kelvin)      1.46257
 Rotational constant (GHZ):          30.475050
    1 imaginary frequencies ignored.
 Zero-point vibrational energy      30727.9 (Joules/Mol)
                                    7.34415 (Kcal/Mol)
 Vibrational temperatures:   2149.77  2149.77  3091.89
          (Kelvin)

 Zero-point correction=                           0.011704 (Hartree/Particle)
 Thermal correction to Energy=                    0.014074
 Thermal correction to Enthalpy=                  0.015019
 Thermal correction to Gibbs Free Energy=        -0.008274
 Sum of electronic and zero-point Energies=           -100.903499
 Sum of electronic and thermal Energies=              -100.901128
 Sum of electronic and thermal Enthalpies=            -100.900184
 Sum of electronic and thermal Free Energies=         -100.923477

                     E (Thermal)             CV                S
                      KCal/Mol        Cal/Mol-Kelvin    Cal/Mol-Kelvin
 Total                    8.832              5.128             49.024
 Electronic               0.000              0.000              1.377
 Translational            0.889              2.981             35.068
 Rotational               0.592              1.987             12.554
 Vibrational              7.351              0.160              0.025

 Normal termination of Gaussian 16 at Fri Aug 22 17:42:58 2025.
