 Gaussian 16, Revision C.01,
 Gaussian 16:  ES64L-G16RevC.01  3-Jul-2019

 -----------------------------------------
 # sp b3lyp/6-311g** Force nosymm scf=(qc)
 -----------------------------------------

 -------------------
 Title Card Required
 -------------------
 Symbolic Z-matrix:
 Charge =  0 Multiplicity = 2

                          Input orientation:
 ---------------------------------------------------------------------
 Center     Atomic      Atomic             Coordinates (Angstroms)
 Number     Number       Type             X           Y           Z
 ---------------------------------------------------------------------
      1          1           0        0.000000    0.000000    0.000000
      2          1           0       -2.950000    0.000000    0.000000
      3          9           0        3.050000    0.000000    0.000000
 ---------------------------------------------------------------------

 SCF Done:  E(UB3LYP) =  -100.761757147     a.u. after   22 cycles

 Alpha  occ. eigenvalues --  -24.74283  -1.20328  -0.53402  -0.44840  -0.44840
 Alpha  occ. eigenvalues --   -0.32704
 Alpha virt. eigenvalues --   -0.09032   0.24785   0.35006   0.89281   0.92157
 Alpha virt. eigenvalues --    0.92157   1.03652   1.24840   1.24840   1.25736
 Alpha virt. eigenvalues --    1.42453   1.42453   1.42858   2.15570   2.38898

  Beta  occ. eigenvalues --  -24.71243  -1.11611  -0.41796  -0.41796  -0.33647
  Beta virt. eigenvalues --   -0.24892  -0.07755   0.24754   0.36533   0.93622
  Beta virt. eigenvalues --    0.93622   0.98069   1.07488   1.23739   1.23739
  Beta virt. eigenvalues --    1.24678   1.44457   1.44457   1.44495   2.16107

 Mulliken charges and spin densities:
               1          2
     1  H    0.031393  -0.955060
     2  H    0.001696   0.991561
     3  F   -0.033089   0.963499
 Sum of Mulliken charges =  -0.00000   1.00000

 Dipole moment (field-independent basis, Debye):
    X=             -0.5422    Y=             -0.0000    Z=              0.0000  Tot=              0.5422
 Quadrupole moment (field-independent basis, Debye-Ang):
   XX=             -8.0806   YY=             -7.6261   ZZ=             -7.6261
   XY=             -0.0000   XZ=              0.0000   YZ=             -0.0000

  Exact polarizability:      35.211      -0.000       2.022       0.000       0.000       2.022
 Approx polarizability:      33.359      -0.000       1.925       0.000      -0.000       1.925

 ******    2 imaginary frequencies (negative Signs) ******

                      1                      2                      3
                      A                      A                      A
 Frequencies --   -446.1097              -188.6286               164.0170
 Red. masses --      1.0213                 1.0926                 1.0175
 Frc consts  --      0.1198                 0.0229                 0.0161
 IR Inten    --     29.8631                 7.0178                 0.8654

                      4
                      A
 Frequencies --    164.0170
 Red. masses --      1.0175
 Frc consts  --      0.0161
 IR Inten    --      0.8654

 - Thermochemistry -
 -------------------
 Temperature   298.150 Kelvin.  Pressure   1.00000 Atm.
 Atom     1 has atomic number  1 and mass   1.00783

 Molecular mass:    21.01405 amu.
 Principal axes and moments of inertia in atomic units:
                           1         2         3
     Eigenvalues --     0.00000 148.90715 148.90715
           X            1.00000  -0.00000   0.00000
           Y            0.00000   1.00000   0.00000
           Z            0.00000   0.00000   1.00000
 This molecule is a prolate symmetric top.
 Rotational symmetry number  1.
 Rotational temperature (Kelvin)      0.58166
 Rotational constant (GHZ):          12.119910
    2 imaginary frequencies ignored.
 Zero-point vibrational energy       1962.1 (Joules/Mol)
                                    0.46895 (Kcal/Mol)
 Warning -- explicit consideration of   2 degrees of freedom as
           vibrations may cause significant error
 Vibrational temperatures:    235.98   235.98
          (Kelvin)

 Zero-point correction=                           0.000747 (Hartree/Particle)
 Thermal correction to Energy=                    0.004346
 Thermal correction to Enthalpy=                  0.005291
 Thermal correction to Gibbs Free Energy=        -0.021240
 Sum of electronic and zero-point Energies=           -100.761010
 Sum of electronic and thermal Energies=              -100.757411
 Sum of electronic and thermal Enthalpies=            -100.756467
 Sum of electronic and thermal Free Energies=         -100.782997

                     E (Thermal)             CV                S
                      KCal/Mol        Cal/Mol-Kelvin    Cal/Mol-Kelvin
 Total                    2.727              8.741             55.838
 Electronic               0.000              0.000              1.377
 Translational            0.889              2.981             35.068
 Rotational               0.592              1.987             14.386
 Vibrational              1.246              3.773              5.006
 Vibration     1          0.623              1.887              2.503
 Vibration     2          0.623              1.887              2.503

 Normal termination of Gaussian 16 at Fri Aug 22 19:44:44 2025.
