 Gaussian 16, Revision C.01,
 Gaussian 16:  ES64L-G16RevC.01  3-Jul-2019

 -----------------------------------------
 # sp b3lyp/6-311g** Force nosymm scf=(qc)
 -----------------------------------------

 -------------------
 Title Card Required
 -------------------
 Symbolic Z-matrix:
 Charge =  0 Multiplicity = 2

                          Input orientation:
 ---------------------------------------------------------------------
 Center     Atomic      Atomic             Coordinates (Angstroms)
 Number     Number       Type             X           Y           Z
 ---------------------------------------------------------------------
      1          1           0        0.000000    0.000000    0.000000
      2          1           0       -2.300000    0.000000    0.000000
      3          9           0        2.650000    0.000000    0.000000
 ---------------------------------------------------------------------

 SCF Done:  E(UB3LYP) =  -100.771185507     a.u. after   19 cycles

 Alpha  occ. eigenvalues --  -24.72621  -1.18774  -0.51729  -0.43439  -0.43439
 Alpha  occ. eigenvalues --   -0.33862
 Alpha virt. eigenvalues --   -0.11941   0.25126   0.32846   0.90346   0.93147
 Alpha virt. eigenvalues --    0.93147   1.06060   1.23897   1.23897   1.25897
 Alpha virt. eigenvalues --    1.37357   1.37357   1.42244   2.13686   2.34091

  Beta  occ. eigenvalues --  -24.69705  -1.10450  -0.40527  -0.40527  -0.34742
  Beta virt. eigenvalues --   -0.23949  -0.10320   0.26100   0.33825   0.94561
  Beta virt. eigenvalues --    0.94561   0.98255   1.09532   1.22916   1.22916
  Beta virt. eigenvalues --    1.26429   1.40016   1.40016   1.43827   2.14301

 Mulliken charges and spin densities:
               1          2
     1  H    0.053885  -0.869754
     2  H    0.014340   0.947142
     3  F   -0.068225   0.922612
 Sum of Mulliken charges =   0.00000   1.00000

 Dipole moment (field-independent basis, Debye):
    X=             -1.0814    Y=             -0.0000    Z=              0.0000  Tot=              1.0814
 Quadrupole moment (field-independent basis, Debye-Ang):
   XX=             -8.3658   YY=             -7.6459   ZZ=             -7.6459
   XY=             -0.0000   XZ=              0.0000   YZ=             -0.0000

  Exact polarizability:      50.756      -0.000       2.009       0.000      -0.000       2.009
 Approx polarizability:      50.486      -0.000       1.919       0.000      -0.000       1.919

 ******    2 imaginary frequencies (negative Signs) ******

                      1                      2                      3
                      A                      A                      A
 Frequencies --   -950.7357              -332.4681               369.4025
 Red. masses --      1.0109                 1.1048                 1.0163
 Frc consts  --      0.5384                 0.0719                 0.0817
 IR Inten    --     37.8139                35.7990                 2.0912

                      4
                      A
 Frequencies --    369.4025
 Red. masses --      1.0163
 Frc consts  --      0.0817
 IR Inten    --      2.0912

 - Thermochemistry -
 -------------------
 Temperature   298.150 Kelvin.  Pressure   1.00000 Atm.
 Atom     1 has atomic number  1 and mass   1.00783

 Molecular mass:    21.01405 amu.
 Principal axes and moments of inertia in atomic units:
                           1         2         3
     Eigenvalues --     0.00000 103.48897 103.48897
           X            1.00000  -0.00000   0.00000
           Y            0.00000   1.00000   0.00000
           Z            0.00000   0.00000   1.00000
 This molecule is a prolate symmetric top.
 Rotational symmetry number  1.
 Rotational temperature (Kelvin)      0.83694
 Rotational constant (GHZ):          17.438972
    2 imaginary frequencies ignored.
 Zero-point vibrational energy       4419.0 (Joules/Mol)
                                    1.05617 (Kcal/Mol)
 Warning -- explicit consideration of   2 degrees of freedom as
           vibrations may cause significant error
 Vibrational temperatures:    531.49   531.49
          (Kelvin)

 Zero-point correction=                           0.001683 (Hartree/Particle)
 Thermal correction to Energy=                    0.004724
 Thermal correction to Enthalpy=                  0.005668
 Thermal correction to Gibbs Free Energy=        -0.019168
 Sum of electronic and zero-point Energies=           -100.769502
 Sum of electronic and thermal Energies=              -100.766461
 Sum of electronic and thermal Enthalpies=            -100.765517
 Sum of electronic and thermal Free Energies=         -100.790354

                     E (Thermal)             CV                S
                      KCal/Mol        Cal/Mol-Kelvin    Cal/Mol-Kelvin
 Total                    2.965              8.038             52.273
 Electronic               0.000              0.000              1.377
 Translational            0.889              2.981             35.068
 Rotational               0.592              1.987             13.663
 Vibrational              1.483              3.070              2.165
 Vibration     1          0.742              1.535              1.082
 Vibration     2          0.742              1.535              1.082

 Normal termination of Gaussian 16 at Fri Aug 22 18:14:38 2025.
