 Gaussian 16, Revision C.01,
 Gaussian 16:  ES64L-G16RevC.01  3-Jul-2019

 -----------------------------------------
 # sp b3lyp/6-311g** Force nosymm scf=(qc)
 -----------------------------------------

 -------------------
 Title Card Required
 -------------------
 Symbolic Z-matrix:
 Charge =  0 Multiplicity = 2

                          Input orientation:
 ---------------------------------------------------------------------
 Center     Atomic      Atomic             Coordinates (Angstroms)
 Number     Number       Type             X           Y           Z
 ---------------------------------------------------------------------
      1          1           0        0.000000    0.000000    0.000000
      2          1           0       -1.000000    0.000000    0.000000
      3          9           0        1.300000    0.000000    0.000000
 ---------------------------------------------------------------------

 SCF Done:  E(UB3LYP) =  -100.937482331     a.u. after    8 cycles

 Alpha  occ. eigenvalues --  -24.66828  -1.14983  -0.54392  -0.39547  -0.39547
 Alpha  occ. eigenvalues --   -0.38993
 Alpha virt. eigenvalues --    0.06242   0.19404   0.35743   0.89641   0.89641
 Alpha virt. eigenvalues --    0.98809   1.07855   1.07855   1.28735   1.62565
 Alpha virt. eigenvalues --    1.63111   1.63111   2.23788   2.31012   2.50107

  Beta  occ. eigenvalues --  -24.65033  -1.10251  -0.46680  -0.37852  -0.37852
  Beta virt. eigenvalues --   -0.22038   0.08787   0.21297   0.39097   0.90723
  Beta virt. eigenvalues --    0.90723   1.02894   1.12153   1.12153   1.33133
  Beta virt. eigenvalues --    1.65880   1.65880   1.66460   2.27204   2.36054

 Mulliken charges and spin densities:
               1          2
     1  H    0.230504  -0.080990
     2  H    0.042525   0.552405
     3  F   -0.273029   0.528584
 Sum of Mulliken charges =   0.00000   1.00000

 Dipole moment (field-independent basis, Debye):
    X=             -2.0426    Y=              0.0000    Z=             -0.0000  Tot=              2.0426
 Quadrupole moment (field-independent basis, Debye-Ang):
   XX=             -7.5746   YY=             -6.8895   ZZ=             -6.8895
   XY=              0.0000   XZ=             -0.0000   YZ=             -0.0000

  Exact polarizability:      23.651      -0.000       2.469      -0.000      -0.000       2.469
 Approx polarizability:      33.221      -0.000       2.466      -0.000       0.000       2.466

 ******    1 imaginary frequencies (negative Signs) ******

                      1                      2                      3
                      A                      A                      A
 Frequencies --  -2169.6009              1075.0033              1075.0033
 Red. masses --      1.0368                 1.0151                 1.0151
 Frc consts  --      2.8756                 0.6911                 0.6911
 IR Inten    --    556.7677                15.6644                15.6644

                      4
                      A
 Frequencies --   1149.0139
 Red. masses --      1.0754
 Frc consts  --      0.8365
 IR Inten    --    107.2913

 - Thermochemistry -
 -------------------
 Temperature   298.150 Kelvin.  Pressure   1.00000 Atm.
 Atom     1 has atomic number  1 and mass   1.00783

 Molecular mass:    21.01405 amu.
 Principal axes and moments of inertia in atomic units:
                           1         2         3
     Eigenvalues --     0.00000  22.88409  22.88409
           X            1.00000  -0.00000   0.00000
           Y            0.00000   1.00000   0.00000
           Z            0.00000   0.00000   1.00000
 This molecule is a prolate symmetric top.
 Rotational symmetry number  1.
 Rotational temperature (Kelvin)      3.78490
 Rotational constant (GHZ):          78.864438
    1 imaginary frequencies ignored.
 Zero-point vibrational energy      19732.5 (Joules/Mol)
                                    4.71619 (Kcal/Mol)
 Vibrational temperatures:   1546.69  1546.69  1653.17
          (Kelvin)

 Zero-point correction=                           0.007516 (Hartree/Particle)
 Thermal correction to Energy=                    0.009952
 Thermal correction to Enthalpy=                  0.010896
 Thermal correction to Gibbs Free Energy=        -0.011577
 Sum of electronic and zero-point Energies=           -100.929967
 Sum of electronic and thermal Energies=              -100.927531
 Sum of electronic and thermal Enthalpies=            -100.926586
 Sum of electronic and thermal Free Energies=         -100.949060

                     E (Thermal)             CV                S
                      KCal/Mol        Cal/Mol-Kelvin    Cal/Mol-Kelvin
 Total                    6.245              5.813             47.299
 Electronic               0.000              0.000              1.377
 Translational            0.889              2.981             35.068
 Rotational               0.592              1.987             10.664
 Vibrational              4.764              0.845              0.189

 Normal termination of Gaussian 16 at Fri Aug 22 16:14:19 2025.
