 Gaussian 16, Revision C.01,
 Gaussian 16:  ES64L-G16RevC.01  3-Jul-2019

 -----------------------------------------
 # sp b3lyp/6-311g** Force nosymm scf=(qc)
 -----------------------------------------

 -------------------
 Title Card Required
 -------------------
 Symbolic Z-matrix:
 Charge =  0 Multiplicity = 2

                          Input orientation:
 ---------------------------------------------------------------------
 Center     Atomic      Atomic             Coordinates (Angstroms)
 Number     Number       Type             X           Y           Z
 ---------------------------------------------------------------------
      1          1           0        0.000000    0.000000    0.000000
      2          1           0       -1.100000    0.000000    0.000000
      3          9           0        3.350000    0.000000    0.000000
 ---------------------------------------------------------------------

 SCF Done:  E(UB3LYP) =  -100.889976422     a.u. after  155 cycles

 Alpha  occ. eigenvalues --  -24.76450  -1.22304  -0.55502  -0.46708  -0.46655
 Alpha  occ. eigenvalues --   -0.37455
 Alpha virt. eigenvalues --   -0.01797   0.22171   0.36248   0.85916   0.90791
 Alpha virt. eigenvalues --    0.92729   1.02006   1.10844   1.10848   1.29798
 Alpha virt. eigenvalues --    1.59958   1.59962   2.16959   2.34493   2.55573

  Beta  occ. eigenvalues --  -24.73292  -1.13224  -0.43545  -0.43488  -0.37450
  Beta virt. eigenvalues --   -0.26138  -0.01787   0.22183   0.36297   0.92290
  Beta virt. eigenvalues --    0.94271   0.95378   1.06046   1.10843   1.10847
  Beta virt. eigenvalues --    1.29807   1.59957   1.59962   2.16968   2.34497

 Mulliken charges and spin densities:
               1          2
     1  H   -0.000716  -0.000314
     2  H   -0.003713  -0.000218
     3  F    0.004429   1.000532
 Sum of Mulliken charges =  -0.00000   1.00000

 Dipole moment (field-independent basis, Debye):
    X=              0.0612    Y=             -0.0000    Z=              0.0000  Tot=              0.0612
 Quadrupole moment (field-independent basis, Debye-Ang):
   XX=             -6.2208   YY=             -6.6761   ZZ=             -7.2430
   XY=              0.0000   XZ=             -0.0000   YZ=             -0.3260

  Exact polarizability:      14.164       0.000       2.458      -0.000      -0.175       2.154
 Approx polarizability:      19.771       0.000       2.595      -0.000      -0.219       2.214

 ******    1 imaginary frequencies (negative Signs) ******

                      1                      2                      3
                      A                      A                      A
 Frequencies --    -31.3075              1027.1935              1528.0852
 Red. masses --      1.1085                 1.0078                 1.0098
 Frc consts  --      0.0006                 0.6265                 1.3893
 IR Inten    --      0.2193                 0.2648                 0.0003

                      4
                      A
 Frequencies --   1528.9265
 Red. masses --      1.0098
 Frc consts  --      1.3908
 IR Inten    --      0.0004

 - Thermochemistry -
 -------------------
 Temperature   298.150 Kelvin.  Pressure   1.00000 Atm.
 Atom     1 has atomic number  1 and mass   1.00783

 Molecular mass:    21.01405 amu.
 Principal axes and moments of inertia in atomic units:
                           1         2         3
     Eigenvalues --     0.00000 101.15784 101.15784
           X            1.00000  -0.00000   0.00000
           Y            0.00000   1.00000   0.00000
           Z            0.00000   0.00000   1.00000
 This molecule is a prolate symmetric top.
 Rotational symmetry number  1.
 Rotational temperature (Kelvin)      0.85623
 Rotational constant (GHZ):          17.840844
    1 imaginary frequencies ignored.
 Zero-point vibrational energy      24429.0 (Joules/Mol)
                                    5.83866 (Kcal/Mol)
 Vibrational temperatures:   1477.90  2198.57  2199.78
          (Kelvin)

 Zero-point correction=                           0.009305 (Hartree/Particle)
 Thermal correction to Energy=                    0.011707
 Thermal correction to Enthalpy=                  0.012651
 Thermal correction to Gibbs Free Energy=        -0.011185
 Sum of electronic and zero-point Energies=           -100.880672
 Sum of electronic and thermal Energies=              -100.878270
 Sum of electronic and thermal Enthalpies=            -100.877325
 Sum of electronic and thermal Free Energies=         -100.901162

                     E (Thermal)             CV                S
                      KCal/Mol        Cal/Mol-Kelvin    Cal/Mol-Kelvin
 Total                    7.346              5.452             50.168
 Electronic               0.000              0.000              1.377
 Translational            0.889              2.981             35.068
 Rotational               0.592              1.987             13.618
 Vibrational              5.865              0.484              0.105

 Normal termination of Gaussian 16 at Fri Aug 22 20:54:56 2025.
