 Gaussian 16, Revision C.01,
 Gaussian 16:  ES64L-G16RevC.01  3-Jul-2019

 -----------------------------------------
 # sp b3lyp/6-311g** Force nosymm scf=(qc)
 -----------------------------------------

 -------------------
 Title Card Required
 -------------------
 Symbolic Z-matrix:
 Charge =  0 Multiplicity = 2

                          Input orientation:
 ---------------------------------------------------------------------
 Center     Atomic      Atomic             Coordinates (Angstroms)
 Number     Number       Type             X           Y           Z
 ---------------------------------------------------------------------
      1          1           0        0.000000    0.000000    0.000000
      2          1           0       -2.450000    0.000000    0.000000
      3          9           0        0.950000    0.000000    0.000000
 ---------------------------------------------------------------------

 SCF Done:  E(UB3LYP) =  -100.971415421     a.u. after    6 cycles

 Alpha  occ. eigenvalues --  -24.63974  -1.17334  -0.52698  -0.39098  -0.39098
 Alpha  occ. eigenvalues --   -0.35010
 Alpha virt. eigenvalues --    0.03321   0.25150   0.36674   0.94329   0.94329
 Alpha virt. eigenvalues --    0.98039   1.18900   1.22539   1.22539   1.36596
 Alpha virt. eigenvalues --    1.36596   1.39698   1.96504   2.13531   2.35336

  Beta  occ. eigenvalues --  -24.63953  -1.17279  -0.52602  -0.39080  -0.39080
  Beta virt. eigenvalues --   -0.09878   0.05073   0.35816   0.37945   0.94332
  Beta virt. eigenvalues --    0.94332   0.98159   1.28421   1.36555   1.36555
  Beta virt. eigenvalues --    1.44061   1.44061   1.52052   1.96451   2.34503

 Mulliken charges and spin densities:
               1          2
     1  H    0.302467   0.003514
     2  H    0.007098   0.989864
     3  F   -0.309566   0.006621
 Sum of Mulliken charges =   0.00000   1.00000

 Dipole moment (field-independent basis, Debye):
    X=             -2.0465    Y=             -0.0000    Z=             -0.0000  Tot=              2.0465
 Quadrupole moment (field-independent basis, Debye-Ang):
   XX=             -7.8195   YY=             -6.9072   ZZ=             -6.9072
   XY=             -0.0000   XZ=             -0.0000   YZ=             -0.0000

  Exact polarizability:       8.265      -0.000       2.444      -0.000      -0.000       2.444
 Approx polarizability:       9.156      -0.000       2.424      -0.000      -0.000       2.424

 ******    1 imaginary frequencies (negative Signs) ******

                      1                      2                      3
                      A                      A                      A
 Frequencies --    -52.5023               657.5597               657.5597
 Red. masses --      1.0530                 1.0322                 1.0322
 Frc consts  --      0.0017                 0.2630                 0.2630
 IR Inten    --      0.9075               159.1588               159.1588

                      4
                      A
 Frequencies --   3668.5059
 Red. masses --      1.0586
 Frc consts  --      8.3935
 IR Inten    --    131.0114

 - Thermochemistry -
 -------------------
 Temperature   298.150 Kelvin.  Pressure   1.00000 Atm.
 Atom     1 has atomic number  1 and mass   1.00783

 Molecular mass:    21.01405 amu.
 Principal axes and moments of inertia in atomic units:
                           1         2         3
     Eigenvalues --     0.00000  41.58649  41.58649
           X            1.00000  -0.00000   0.00000
           Y            0.00000   1.00000   0.00000
           Z            0.00000   0.00000   1.00000
 This molecule is a prolate symmetric top.
 Rotational symmetry number  1.
 Rotational temperature (Kelvin)      2.08274
 Rotational constant (GHZ):          43.397296
    1 imaginary frequencies ignored.
 Zero-point vibrational energy      29808.7 (Joules/Mol)
                                    7.12445 (Kcal/Mol)
 Vibrational temperatures:    946.08   946.08  5278.16
          (Kelvin)

 Zero-point correction=                           0.011354 (Hartree/Particle)
 Thermal correction to Energy=                    0.013976
 Thermal correction to Enthalpy=                  0.014920
 Thermal correction to Gibbs Free Energy=        -0.008370
 Sum of electronic and zero-point Energies=           -100.960062
 Sum of electronic and thermal Energies=              -100.957440
 Sum of electronic and thermal Enthalpies=            -100.956495
 Sum of electronic and thermal Free Energies=         -100.979785

                     E (Thermal)             CV                S
                      KCal/Mol        Cal/Mol-Kelvin    Cal/Mol-Kelvin
 Total                    8.770              6.793             49.018
 Electronic               0.000              0.000              1.377
 Translational            0.889              2.981             35.068
 Rotational               0.592              1.987             11.852
 Vibrational              7.289              1.825              0.721

 Normal termination of Gaussian 16 at Fri Aug 22 15:58:27 2025.
