 Gaussian 16, Revision C.01,
 Gaussian 16:  ES64L-G16RevC.01  3-Jul-2019

 -----------------------------------------
 # sp b3lyp/6-311g** Force nosymm scf=(qc)
 -----------------------------------------

 -------------------
 Title Card Required
 -------------------
 Symbolic Z-matrix:
 Charge =  0 Multiplicity = 2

                          Input orientation:
 ---------------------------------------------------------------------
 Center     Atomic      Atomic             Coordinates (Angstroms)
 Number     Number       Type             X           Y           Z
 ---------------------------------------------------------------------
      1          1           0        0.000000    0.000000    0.000000
      2          1           0       -1.800000    0.000000    0.000000
      3          9           0        0.700000    0.000000    0.000000
 ---------------------------------------------------------------------

 SCF Done:  E(UB3LYP) =  -100.873449530     a.u. after    6 cycles

 Alpha  occ. eigenvalues --  -24.63070  -1.28176  -0.58807  -0.41659  -0.41659
 Alpha  occ. eigenvalues --   -0.35672
 Alpha virt. eigenvalues --    0.11341   0.23316   0.49787   0.93533   0.93533
 Alpha virt. eigenvalues --    0.96167   1.21128   1.21128   1.22027   1.44796
 Alpha virt. eigenvalues --    1.44796   1.56955   2.00621   2.16605   2.91967

  Beta  occ. eigenvalues --  -24.63013  -1.28012  -0.58507  -0.41617  -0.41617
  Beta virt. eigenvalues --   -0.11252   0.12825   0.33051   0.51880   0.93552
  Beta virt. eigenvalues --    0.93552   0.96315   1.30627   1.38424   1.38424
  Beta virt. eigenvalues --    1.46941   1.46941   1.64728   2.03629   2.38792

 Mulliken charges and spin densities:
               1          2
     1  H    0.244701   0.012102
     2  H    0.012518   0.978258
     3  F   -0.257219   0.009640
 Sum of Mulliken charges =   0.00000   1.00000

 Dipole moment (field-independent basis, Debye):
    X=             -1.6804    Y=             -0.0000    Z=             -0.0000  Tot=              1.6804
 Quadrupole moment (field-independent basis, Debye-Ang):
   XX=             -7.0130   YY=             -6.6107   ZZ=             -6.6107
   XY=             -0.0000   XZ=             -0.0000   YZ=              0.0000

  Exact polarizability:       6.882       0.000       2.512       0.000      -0.000       2.512
 Approx polarizability:       6.752      -0.000       2.510       0.000      -0.000       2.510

 ******    2 imaginary frequencies (negative Signs) ******

                      1                      2                      3
                      A                      A                      A
 Frequencies --  -3489.1113             -3489.1113               485.9825
 Red. masses --      1.0321                 1.0321                 1.0533
 Frc consts  --      7.4031                 7.4031                 0.1466
 IR Inten    --    169.2683               169.2683                 0.0140

                      4
                      A
 Frequencies --   9065.3673
 Red. masses --      1.0582
 Frc consts  --     51.2393
 IR Inten    --    147.6291

 - Thermochemistry -
 -------------------
 Temperature   298.150 Kelvin.  Pressure   1.00000 Atm.
 Atom     1 has atomic number  1 and mass   1.00783

 Molecular mass:    21.01405 amu.
 Principal axes and moments of inertia in atomic units:
                           1         2         3
     Eigenvalues --     0.00000  22.48982  22.48982
           X            1.00000  -0.00000   0.00000
           Y            0.00000   1.00000   0.00000
           Z            0.00000   0.00000   1.00000
 This molecule is a prolate symmetric top.
 Rotational symmetry number  1.
 Rotational temperature (Kelvin)      3.85125
 Rotational constant (GHZ):          80.247018
    2 imaginary frequencies ignored.
 Zero-point vibrational energy      57129.8 (Joules/Mol)
                                   13.65434 (Kcal/Mol)
 Warning -- explicit consideration of   1 degrees of freedom as
           vibrations may cause significant error
 Vibrational temperatures:    699.22 13043.04
          (Kelvin)

 Zero-point correction=                           0.021760 (Hartree/Particle)
 Thermal correction to Energy=                    0.024355
 Thermal correction to Enthalpy=                  0.025299
 Thermal correction to Gibbs Free Energy=         0.002602
 Sum of electronic and zero-point Energies=           -100.851690
 Sum of electronic and thermal Energies=              -100.849095
 Sum of electronic and thermal Enthalpies=            -100.848151
 Sum of electronic and thermal Free Energies=         -100.870847

                     E (Thermal)             CV                S
                      KCal/Mol        Cal/Mol-Kelvin    Cal/Mol-Kelvin
 Total                   15.283              6.249             47.769
 Electronic               0.000              0.000              1.377
 Translational            0.889              2.981             35.068
 Rotational               0.592              1.987             10.630
 Vibrational             13.802              1.281              0.694
 Vibration     1          0.842              1.281              0.694

 Normal termination of Gaussian 16 at Fri Aug 22 15:46:17 2025.
