 Gaussian 16, Revision C.01,
 Gaussian 16:  ES64L-G16RevC.01  3-Jul-2019

 -----------------------------------------
 # sp b3lyp/6-311g** Force nosymm scf=(qc)
 -----------------------------------------

 -------------------
 Title Card Required
 -------------------
 Symbolic Z-matrix:
 Charge =  0 Multiplicity = 2

                          Input orientation:
 ---------------------------------------------------------------------
 Center     Atomic      Atomic             Coordinates (Angstroms)
 Number     Number       Type             X           Y           Z
 ---------------------------------------------------------------------
      1          1           0        0.000000    0.000000    0.000000
      2          1           0       -2.700000    0.000000    0.000000
      3          9           0        1.000000    0.000000    0.000000
 ---------------------------------------------------------------------

 SCF Done:  E(UB3LYP) =  -100.966416299     a.u. after    6 cycles

 Alpha  occ. eigenvalues --  -24.64106  -1.15993  -0.51619  -0.38734  -0.38734
 Alpha  occ. eigenvalues --   -0.34646
 Alpha virt. eigenvalues --    0.01284   0.25103   0.34184   0.94104   0.94104
 Alpha virt. eigenvalues --    0.98592   1.21339   1.22898   1.22898   1.34689
 Alpha virt. eigenvalues --    1.36000   1.36000   1.90844   2.14179   2.34359

  Beta  occ. eigenvalues --  -24.64092  -1.15958  -0.51566  -0.38722  -0.38722
  Beta virt. eigenvalues --   -0.08942   0.02858   0.34152   0.37775   0.94106
  Beta virt. eigenvalues --    0.94106   0.98616   1.30036   1.35982   1.35982
  Beta virt. eigenvalues --    1.45661   1.45661   1.49332   1.91043   2.34156

 Mulliken charges and spin densities:
               1          2
     1  H    0.316698   0.002149
     2  H    0.004875   0.993457
     3  F   -0.321573   0.004394
 Sum of Mulliken charges =   0.00000   1.00000

 Dipole moment (field-independent basis, Debye):
    X=             -2.0917    Y=             -0.0000    Z=             -0.0000  Tot=              2.0917
 Quadrupole moment (field-independent basis, Debye-Ang):
   XX=             -8.0431   YY=             -6.9587   ZZ=             -6.9587
   XY=             -0.0000   XZ=             -0.0000   YZ=              0.0000

  Exact polarizability:       8.257       0.000       2.418      -0.000      -0.000       2.418
 Approx polarizability:       9.566      -0.000       2.393       0.000      -0.000       2.393

 ******    1 imaginary frequencies (negative Signs) ******

                      1                      2                      3
                      A                      A                      A
 Frequencies --    -87.5281               970.0374               970.0374
 Red. masses --      1.0530                 1.0329                 1.0329
 Frc consts  --      0.0048                 0.5727                 0.5727
 IR Inten    --      0.6140               158.9226               158.9226

                      4
                      A
 Frequencies --   3019.0045
 Red. masses --      1.0586
 Frc consts  --      5.6845
 IR Inten    --    112.6163

 - Thermochemistry -
 -------------------
 Temperature   298.150 Kelvin.  Pressure   1.00000 Atm.
 Atom     1 has atomic number  1 and mass   1.00783

 Molecular mass:    21.01405 amu.
 Principal axes and moments of inertia in atomic units:
                           1         2         3
     Eigenvalues --     0.00000  49.05655  49.05655
           X            1.00000  -0.00000   0.00000
           Y            0.00000   1.00000   0.00000
           Z            0.00000   0.00000   1.00000
 This molecule is a prolate symmetric top.
 Rotational symmetry number  1.
 Rotational temperature (Kelvin)      1.76559
 Rotational constant (GHZ):          36.788997
    1 imaginary frequencies ignored.
 Zero-point vibrational energy      29661.9 (Joules/Mol)
                                    7.08936 (Kcal/Mol)
 Vibrational temperatures:   1395.67  1395.67  4343.67
          (Kelvin)

 Zero-point correction=                           0.011298 (Hartree/Particle)
 Thermal correction to Energy=                    0.013741
 Thermal correction to Enthalpy=                  0.014685
 Thermal correction to Gibbs Free Energy=        -0.008519
 Sum of electronic and zero-point Energies=           -100.955119
 Sum of electronic and thermal Energies=              -100.952676
 Sum of electronic and thermal Enthalpies=            -100.951731
 Sum of electronic and thermal Free Energies=         -100.974935

                     E (Thermal)             CV                S
                      KCal/Mol        Cal/Mol-Kelvin    Cal/Mol-Kelvin
 Total                    8.622              5.791             48.836
 Electronic               0.000              0.000              1.377
 Translational            0.889              2.981             35.068
 Rotational               0.592              1.987             12.180
 Vibrational              7.141              0.823              0.211

 Normal termination of Gaussian 16 at Fri Aug 22 16:01:01 2025.
