 Gaussian 16, Revision C.01,
 Gaussian 16:  ES64L-G16RevC.01  3-Jul-2019

 -----------------------------------------
 # sp b3lyp/6-311g** Force nosymm scf=(qc)
 -----------------------------------------

 -------------------
 Title Card Required
 -------------------
 Symbolic Z-matrix:
 Charge =  0 Multiplicity = 2

                          Input orientation:
 ---------------------------------------------------------------------
 Center     Atomic      Atomic             Coordinates (Angstroms)
 Number     Number       Type             X           Y           Z
 ---------------------------------------------------------------------
      1          1           0        0.000000    0.000000    0.000000
      2          1           0       -1.800000    0.000000    0.000000
      3          9           0        3.200000    0.000000    0.000000
 ---------------------------------------------------------------------

 SCF Done:  E(UB3LYP) =  -100.786884921     a.u. after   33 cycles

 Alpha  occ. eigenvalues --  -24.75168  -1.21147  -0.54291  -0.45590  -0.45590
 Alpha  occ. eigenvalues --   -0.33660
 Alpha virt. eigenvalues --   -0.11448   0.25480   0.30819   0.88768   0.91593
 Alpha virt. eigenvalues --    0.91593   1.02804   1.09427   1.23941   1.23941
 Alpha virt. eigenvalues --    1.36901   1.36901   1.60804   2.14313   2.39632

  Beta  occ. eigenvalues --  -24.72078  -1.12274  -0.42494  -0.42494  -0.33628
  Beta virt. eigenvalues --   -0.25474  -0.11183   0.25668   0.31203   0.93073
  Beta virt. eigenvalues --    0.93073   0.97712   1.06752   1.09571   1.23969
  Beta virt. eigenvalues --    1.23969   1.37217   1.37217   1.61118   2.15142

 Mulliken charges and spin densities:
               1          2
     1  H    0.004496  -0.709315
     2  H    0.012920   0.729747
     3  F   -0.017416   0.979568
 Sum of Mulliken charges =  -0.00000   1.00000

 Dipole moment (field-independent basis, Debye):
    X=             -0.3954    Y=             -0.0000    Z=              0.0000  Tot=              0.3954
 Quadrupole moment (field-independent basis, Debye-Ang):
   XX=             -6.6205   YY=             -7.7461   ZZ=             -7.7461
   XY=             -0.0000   XZ=              0.0000   YZ=              0.0000

  Exact polarizability:      54.721      -0.000       2.018       0.000       0.000       2.018
 Approx polarizability:      55.498      -0.000       1.956       0.000       0.000       1.956

 ******    2 imaginary frequencies (negative Signs) ******

                      1                      2                      3
                      A                      A                      A
 Frequencies --  -1735.2962              -179.8583               764.9856
 Red. masses --      1.0079                 1.1085                 1.0125
 Frc consts  --      1.7881                 0.0211                 0.3491
 IR Inten    --     46.2620                16.6498                 0.0003

                      4
                      A
 Frequencies --    764.9856
 Red. masses --      1.0125
 Frc consts  --      0.3491
 IR Inten    --      0.0003

 - Thermochemistry -
 -------------------
 Temperature   298.150 Kelvin.  Pressure   1.00000 Atm.
 Atom     1 has atomic number  1 and mass   1.00783

 Molecular mass:    21.01405 amu.
 Principal axes and moments of inertia in atomic units:
                           1         2         3
     Eigenvalues --     0.00000 115.22297 115.22297
           X            1.00000  -0.00000   0.00000
           Y            0.00000   1.00000   0.00000
           Z            0.00000   0.00000   1.00000
 This molecule is a prolate symmetric top.
 Rotational symmetry number  1.
 Rotational temperature (Kelvin)      0.75171
 Rotational constant (GHZ):          15.663033
    2 imaginary frequencies ignored.
 Zero-point vibrational energy       9151.3 (Joules/Mol)
                                    2.18720 (Kcal/Mol)
 Vibrational temperatures:   1100.64  1100.64
          (Kelvin)

 Zero-point correction=                           0.003486 (Hartree/Particle)
 Thermal correction to Energy=                    0.006024
 Thermal correction to Enthalpy=                  0.006968
 Thermal correction to Gibbs Free Energy=        -0.017167
 Sum of electronic and zero-point Energies=           -100.783399
 Sum of electronic and thermal Energies=              -100.780861
 Sum of electronic and thermal Enthalpies=            -100.779916
 Sum of electronic and thermal Free Energies=         -100.804052

                     E (Thermal)             CV                S
                      KCal/Mol        Cal/Mol-Kelvin    Cal/Mol-Kelvin
 Total                    3.780              6.388             50.798
 Electronic               0.000              0.000              1.377
 Translational            0.889              2.981             35.068
 Rotational               0.592              1.987             13.877
 Vibrational              2.299              1.420              0.476

 Normal termination of Gaussian 16 at Fri Aug 22 20:22:46 2025.
