 Gaussian 16, Revision C.01,
 Gaussian 16:  ES64L-G16RevC.01  3-Jul-2019

 -----------------------------------------
 # sp b3lyp/6-311g** Force nosymm scf=(qc)
 -----------------------------------------

 -------------------
 Title Card Required
 -------------------
 Symbolic Z-matrix:
 Charge =  0 Multiplicity = 2

                          Input orientation:
 ---------------------------------------------------------------------
 Center     Atomic      Atomic             Coordinates (Angstroms)
 Number     Number       Type             X           Y           Z
 ---------------------------------------------------------------------
      1          1           0        0.000000    0.000000    0.000000
      2          1           0       -3.200000    0.000000    0.000000
      3          9           0        3.100000    0.000000    0.000000
 ---------------------------------------------------------------------

 SCF Done:  E(UB3LYP) =  -100.760861172     a.u. after   24 cycles

 Alpha  occ. eigenvalues --  -24.74433  -1.20467  -0.53553  -0.44966  -0.44966
 Alpha  occ. eigenvalues --   -0.32571
 Alpha virt. eigenvalues --   -0.08344   0.24435   0.35759   0.89067   0.92066
 Alpha virt. eigenvalues --    0.92066   1.03373   1.24949   1.24949   1.25385
 Alpha virt. eigenvalues --    1.43514   1.43514   1.43737   2.15290   2.39801

  Beta  occ. eigenvalues --  -24.71382  -1.11717  -0.41911  -0.41911  -0.33517
  Beta virt. eigenvalues --   -0.24972  -0.07125   0.24334   0.37300   0.93535
  Beta virt. eigenvalues --    0.93535   0.97892   1.07204   1.23852   1.23852
  Beta virt. eigenvalues --    1.24361   1.45152   1.45360   1.45360   2.15691

 Mulliken charges and spin densities:
               1          2
     1  H    0.029234  -0.962548
     2  H    0.000826   0.995591
     3  F   -0.030060   0.966957
 Sum of Mulliken charges =  -0.00000   1.00000

 Dipole moment (field-independent basis, Debye):
    X=             -0.4914    Y=              0.0000    Z=             -0.0000  Tot=              0.4914
 Quadrupole moment (field-independent basis, Debye-Ang):
   XX=             -8.0524   YY=             -7.6195   ZZ=             -7.6195
   XY=              0.0000   XZ=             -0.0000   YZ=             -0.0000

  Exact polarizability:      32.558       0.000       2.025      -0.000       0.000       2.025
 Approx polarizability:      30.854       0.000       1.927      -0.000       0.000       1.927

 ******    2 imaginary frequencies (negative Signs) ******

                      1                      2                      3
                      A                      A                      A
 Frequencies --   -375.3240              -153.1034               134.5379
 Red. masses --      1.0313                 1.0815                 1.0183
 Frc consts  --      0.0856                 0.0149                 0.0109
 IR Inten    --     30.3453                 2.9592                 0.7722

                      4
                      A
 Frequencies --    134.5379
 Red. masses --      1.0183
 Frc consts  --      0.0109
 IR Inten    --      0.7722

 - Thermochemistry -
 -------------------
 Temperature   298.150 Kelvin.  Pressure   1.00000 Atm.
 Atom     1 has atomic number  1 and mass   1.00783

 Molecular mass:    21.01405 amu.
 Principal axes and moments of inertia in atomic units:
                           1         2         3
     Eigenvalues --     0.00000 162.17957 162.17957
           X            1.00000  -0.00000   0.00000
           Y            0.00000   1.00000   0.00000
           Z            0.00000   0.00000   1.00000
 This molecule is a prolate symmetric top.
 Rotational symmetry number  1.
 Rotational temperature (Kelvin)      0.53406
 Rotational constant (GHZ):          11.128043
    2 imaginary frequencies ignored.
 Zero-point vibrational energy       1609.4 (Joules/Mol)
                                    0.38466 (Kcal/Mol)
 Warning -- explicit consideration of   2 degrees of freedom as
           vibrations may cause significant error
 Vibrational temperatures:    193.57   193.57
          (Kelvin)

 Zero-point correction=                           0.000613 (Hartree/Particle)
 Thermal correction to Energy=                    0.004315
 Thermal correction to Enthalpy=                  0.005259
 Thermal correction to Gibbs Free Energy=        -0.021710
 Sum of electronic and zero-point Energies=           -100.760248
 Sum of electronic and thermal Energies=              -100.756546
 Sum of electronic and thermal Enthalpies=            -100.755602
 Sum of electronic and thermal Free Energies=         -100.782572

                     E (Thermal)             CV                S
                      KCal/Mol        Cal/Mol-Kelvin    Cal/Mol-Kelvin
 Total                    2.708              8.806             56.762
 Electronic               0.000              0.000              1.377
 Translational            0.889              2.981             35.068
 Rotational               0.592              1.987             14.556
 Vibrational              1.226              3.838              5.760
 Vibration     1          0.613              1.919              2.880
 Vibration     2          0.613              1.919              2.880

 Normal termination of Gaussian 16 at Fri Aug 22 19:56:00 2025.
