 Gaussian 16, Revision C.01,
 Gaussian 16:  ES64L-G16RevC.01  3-Jul-2019

 -----------------------------------------
 # sp b3lyp/6-311g** Force nosymm scf=(qc)
 -----------------------------------------

 -------------------
 Title Card Required
 -------------------
 Symbolic Z-matrix:
 Charge =  0 Multiplicity = 2

                          Input orientation:
 ---------------------------------------------------------------------
 Center     Atomic      Atomic             Coordinates (Angstroms)
 Number     Number       Type             X           Y           Z
 ---------------------------------------------------------------------
      1          1           0        0.000000    0.000000    0.000000
      2          1           0       -2.650000    0.000000    0.000000
      3          9           0        2.200000    0.000000    0.000000
 ---------------------------------------------------------------------

 SCF Done:  E(UB3LYP) =  -100.778939348     a.u. after   20 cycles

 Alpha  occ. eigenvalues --  -24.69730  -1.16031  -0.48785  -0.41018  -0.41018
 Alpha  occ. eigenvalues --   -0.34104
 Alpha virt. eigenvalues --   -0.12852   0.24127   0.32431   0.88931   0.94539
 Alpha virt. eigenvalues --    0.94539   1.06439   1.23500   1.23500   1.25706
 Alpha virt. eigenvalues --    1.36779   1.36779   1.51271   2.14542   2.31135

  Beta  occ. eigenvalues --  -24.67106  -1.08629  -0.38417  -0.38417  -0.36679
  Beta virt. eigenvalues --   -0.21991  -0.09220   0.25037   0.35323   0.92643
  Beta virt. eigenvalues --    0.95628   0.95628   1.08751   1.21728   1.21728
  Beta virt. eigenvalues --    1.40939   1.42458   1.42458   1.44771   2.13274

 Mulliken charges and spin densities:
               1          2
     1  H    0.132700  -0.806525
     2  H    0.010593   0.980174
     3  F   -0.143292   0.826351
 Sum of Mulliken charges =   0.00000   1.00000

 Dipole moment (field-independent basis, Debye):
    X=             -1.7144    Y=              0.0000    Z=             -0.0000  Tot=              1.7144
 Quadrupole moment (field-independent basis, Debye-Ang):
   XX=             -9.3779   YY=             -7.5558   ZZ=             -7.5558
   XY=              0.0000   XZ=             -0.0000   YZ=             -0.0000

  Exact polarizability:      37.029       0.000       2.034      -0.000      -0.000       2.034
 Approx polarizability:      44.469      -0.000       1.928       0.000      -0.000       1.928

 ******    2 imaginary frequencies (negative Signs) ******

                      1                      2                      3
                      A                      A                      A
 Frequencies --   -942.6408              -329.4867               390.2535
 Red. masses --      1.0413                 1.0707                 1.0204
 Frc consts  --      0.5451                 0.0685                 0.0916
 IR Inten    --     87.9484                11.1158                15.1274

                      4
                      A
 Frequencies --    390.2535
 Red. masses --      1.0204
 Frc consts  --      0.0916
 IR Inten    --     15.1274

 - Thermochemistry -
 -------------------
 Temperature   298.150 Kelvin.  Pressure   1.00000 Atm.
 Atom     1 has atomic number  1 and mass   1.00783

 Molecular mass:    21.01405 amu.
 Principal axes and moments of inertia in atomic units:
                           1         2         3
     Eigenvalues --     0.00000  93.49788  93.49788
           X            1.00000  -0.00000   0.00000
           Y            0.00000   1.00000   0.00000
           Z            0.00000   0.00000   1.00000
 This molecule is a prolate symmetric top.
 Rotational symmetry number  1.
 Rotational temperature (Kelvin)      0.92637
 Rotational constant (GHZ):          19.302482
    2 imaginary frequencies ignored.
 Zero-point vibrational energy       4668.5 (Joules/Mol)
                                    1.11579 (Kcal/Mol)
 Warning -- explicit consideration of   2 degrees of freedom as
           vibrations may cause significant error
 Vibrational temperatures:    561.49   561.49
          (Kelvin)

 Zero-point correction=                           0.001778 (Hartree/Particle)
 Thermal correction to Energy=                    0.004777
 Thermal correction to Enthalpy=                  0.005721
 Thermal correction to Gibbs Free Energy=        -0.018941
 Sum of electronic and zero-point Energies=           -100.777161
 Sum of electronic and thermal Energies=              -100.774163
 Sum of electronic and thermal Enthalpies=            -100.773219
 Sum of electronic and thermal Free Energies=         -100.797881

                     E (Thermal)             CV                S
                      KCal/Mol        Cal/Mol-Kelvin    Cal/Mol-Kelvin
 Total                    2.997              7.950             51.905
 Electronic               0.000              0.000              1.377
 Translational            0.889              2.981             35.068
 Rotational               0.592              1.987             13.461
 Vibrational              1.516              2.982              1.998
 Vibration     1          0.758              1.491              0.999
 Vibration     2          0.758              1.491              0.999

 Normal termination of Gaussian 16 at Fri Aug 22 17:12:15 2025.
