 Gaussian 16, Revision C.01,
 Gaussian 16:  ES64L-G16RevC.01  3-Jul-2019

 -----------------------------------------
 # sp b3lyp/6-311g** Force nosymm scf=(qc)
 -----------------------------------------

 -------------------
 Title Card Required
 -------------------
 Symbolic Z-matrix:
 Charge =  0 Multiplicity = 2

                          Input orientation:
 ---------------------------------------------------------------------
 Center     Atomic      Atomic             Coordinates (Angstroms)
 Number     Number       Type             X           Y           Z
 ---------------------------------------------------------------------
      1          1           0        0.000000    0.000000    0.000000
      2          1           0       -2.700000    0.000000    0.000000
      3          9           0        1.650000    0.000000    0.000000
 ---------------------------------------------------------------------

 SCF Done:  E(UB3LYP) =  -100.824895195     a.u. after   10 cycles

 Alpha  occ. eigenvalues --  -24.63803  -1.08452  -0.41192  -0.35693  -0.35693
 Alpha  occ. eigenvalues --   -0.35293
 Alpha virt. eigenvalues --   -0.17544   0.21533   0.26651   0.94695   0.94695
 Alpha virt. eigenvalues --    0.99420   1.07781   1.22114   1.22114   1.23577
 Alpha virt. eigenvalues --    1.28182   1.28182   1.72368   2.13122   2.16236

  Beta  occ. eigenvalues --  -24.63988  -1.08951  -0.41375  -0.35872  -0.35872
  Beta virt. eigenvalues --   -0.17967  -0.08306   0.24826   0.36112   0.94795
  Beta virt. eigenvalues --    0.94795   0.99527   1.07879   1.29467   1.29467
  Beta virt. eigenvalues --    1.43212   1.43212   1.43553   1.73224   2.18075

 Mulliken charges and spin densities:
               1          2
     1  H    0.321246   0.075962
     2  H    0.016208   0.982889
     3  F   -0.337454  -0.058851
 Sum of Mulliken charges =   0.00000   1.00000

 Dipole moment (field-independent basis, Debye):
    X=             -2.9430    Y=             -0.0000    Z=             -0.0000  Tot=              2.9430
 Quadrupole moment (field-independent basis, Debye-Ang):
   XX=             -9.9838   YY=             -7.3987   ZZ=             -7.3987
   XY=             -0.0000   XZ=             -0.0000   YZ=              0.0000

  Exact polarizability:      25.523      -0.000       2.129      -0.000      -0.000       2.129
 Approx polarizability:      48.431       0.000       2.046       0.000      -0.000       2.046

 ******    2 imaginary frequencies (negative Signs) ******

                      1                      2                      3
                      A                      A                      A
 Frequencies --  -1205.0245              -180.6631               886.8937
 Red. masses --      1.0508                 1.0608                 1.0249
 Frc consts  --      0.8990                 0.0204                 0.4750
 IR Inten    --    140.6069                 3.7292                91.3186

                      4
                      A
 Frequencies --    886.8937
 Red. masses --      1.0249
 Frc consts  --      0.4750
 IR Inten    --     91.3186

 - Thermochemistry -
 -------------------
 Temperature   298.150 Kelvin.  Pressure   1.00000 Atm.
 Atom     1 has atomic number  1 and mass   1.00783

 Molecular mass:    21.01405 amu.
 Principal axes and moments of inertia in atomic units:
                           1         2         3
     Eigenvalues --     0.00000  71.68669  71.68669
           X            1.00000  -0.00000   0.00000
           Y            0.00000   1.00000   0.00000
           Z            0.00000   0.00000   1.00000
 This molecule is a prolate symmetric top.
 Rotational symmetry number  1.
 Rotational temperature (Kelvin)      1.20823
 Rotational constant (GHZ):          25.175401
    2 imaginary frequencies ignored.
 Zero-point vibrational energy      10609.6 (Joules/Mol)
                                    2.53576 (Kcal/Mol)
 Vibrational temperatures:   1276.04  1276.04
          (Kelvin)

 Zero-point correction=                           0.004041 (Hartree/Particle)
 Thermal correction to Energy=                    0.006515
 Thermal correction to Enthalpy=                  0.007459
 Thermal correction to Gibbs Free Energy=        -0.016142
 Sum of electronic and zero-point Energies=           -100.820854
 Sum of electronic and thermal Energies=              -100.818380
 Sum of electronic and thermal Enthalpies=            -100.817436
 Sum of electronic and thermal Free Energies=         -100.841037

                     E (Thermal)             CV                S
                      KCal/Mol        Cal/Mol-Kelvin    Cal/Mol-Kelvin
 Total                    4.088              6.004             49.673
 Electronic               0.000              0.000              1.377
 Translational            0.889              2.981             35.068
 Rotational               0.592              1.987             12.934
 Vibrational              2.607              1.036              0.294

 Normal termination of Gaussian 16 at Fri Aug 22 16:34:59 2025.
