 Gaussian 16, Revision C.01,
 Gaussian 16:  ES64L-G16RevC.01  3-Jul-2019

 -----------------------------------------
 # sp b3lyp/6-311g** Force nosymm scf=(qc)
 -----------------------------------------

 -------------------
 Title Card Required
 -------------------
 Symbolic Z-matrix:
 Charge =  0 Multiplicity = 2

                          Input orientation:
 ---------------------------------------------------------------------
 Center     Atomic      Atomic             Coordinates (Angstroms)
 Number     Number       Type             X           Y           Z
 ---------------------------------------------------------------------
      1          1           0        0.000000    0.000000    0.000000
      2          1           0       -3.950000    0.000000    0.000000
      3          9           0        3.250000    0.000000    0.000000
 ---------------------------------------------------------------------

 SCF Done:  E(UB3LYP) =  -100.759556384     a.u. after   22 cycles

 Alpha  occ. eigenvalues --  -24.74845  -1.20848  -0.53966  -0.45311  -0.45311
 Alpha  occ. eigenvalues --   -0.32361
 Alpha virt. eigenvalues --   -0.06905   0.24020   0.36702   0.88446   0.91815
 Alpha virt. eigenvalues --    0.91815   1.02643   1.25135   1.25135   1.25158
 Alpha virt. eigenvalues --    1.45624   1.45624   1.45957   2.14475   2.41775

  Beta  occ. eigenvalues --  -24.71766  -1.12011  -0.42227  -0.42227  -0.33187
  Beta virt. eigenvalues --   -0.25196  -0.05898   0.23767   0.38161   0.93293
  Beta virt. eigenvalues --    0.93293   0.97394   1.06530   1.24186   1.24186
  Beta virt. eigenvalues --    1.24238   1.46635   1.46748   1.46748   2.14700

 Mulliken charges and spin densities:
               1          2
     1  H    0.021774  -0.975382
     2  H    0.000090   0.999306
     3  F   -0.021864   0.976075
 Sum of Mulliken charges =  -0.00000   1.00000

 Dipole moment (field-independent basis, Debye):
    X=             -0.3668    Y=              0.0000    Z=             -0.0000  Tot=              0.3668
 Quadrupole moment (field-independent basis, Debye-Ang):
   XX=             -7.8528   YY=             -7.6131   ZZ=             -7.6131
   XY=             -0.0000   XZ=             -0.0000   YZ=             -0.0000

  Exact polarizability:      28.194      -0.000       2.031      -0.000      -0.000       2.031
 Approx polarizability:      25.345      -0.000       1.931      -0.000       0.000       1.931

 ******    2 imaginary frequencies (negative Signs) ******

                      1                      2                      3
                      A                      A                      A
 Frequencies --   -280.5904               -72.1579                89.1355
 Red. masses --      1.0509                 1.0607                 1.0205
 Frc consts  --      0.0487                 0.0033                 0.0048
 IR Inten    --     23.6366                 0.1369                 0.4476

                      4
                      A
 Frequencies --     89.1356
 Red. masses --      1.0205
 Frc consts  --      0.0048
 IR Inten    --      0.4476

 - Thermochemistry -
 -------------------
 Temperature   298.150 Kelvin.  Pressure   1.00000 Atm.
 Atom     1 has atomic number  1 and mass   1.00783

 Molecular mass:    21.01405 amu.
 Principal axes and moments of inertia in atomic units:
                           1         2         3
     Eigenvalues --     0.00000 205.73802 205.73802
           X            1.00000  -0.00000   0.00000
           Y            0.00000   1.00000   0.00000
           Z            0.00000   0.00000   1.00000
 This molecule is a prolate symmetric top.
 Rotational symmetry number  1.
 Rotational temperature (Kelvin)      0.42099
 Rotational constant (GHZ):           8.772035
    2 imaginary frequencies ignored.
 Zero-point vibrational energy       1066.3 (Joules/Mol)
                                    0.25485 (Kcal/Mol)
 Warning -- explicit consideration of   2 degrees of freedom as
           vibrations may cause significant error
 Vibrational temperatures:    128.25   128.25
          (Kelvin)

 Zero-point correction=                           0.000406 (Hartree/Particle)
 Thermal correction to Energy=                    0.004278
 Thermal correction to Enthalpy=                  0.005222
 Thermal correction to Gibbs Free Energy=        -0.022731
 Sum of electronic and zero-point Energies=           -100.759150
 Sum of electronic and thermal Energies=              -100.755279
 Sum of electronic and thermal Enthalpies=            -100.754334
 Sum of electronic and thermal Free Energies=         -100.782287

                     E (Thermal)             CV                S
                      KCal/Mol        Cal/Mol-Kelvin    Cal/Mol-Kelvin
 Total                    2.684              8.882             58.832
 Electronic               0.000              0.000              1.377
 Translational            0.889              2.981             35.068
 Rotational               0.592              1.987             15.029
 Vibrational              1.203              3.914              7.358
 Vibration     1          0.602              1.957              3.679
 Vibration     2          0.602              1.957              3.679

 Normal termination of Gaussian 16 at Fri Aug 22 20:36:45 2025.
