 Gaussian 16, Revision C.01,
 Gaussian 16:  ES64L-G16RevC.01  3-Jul-2019

 -----------------------------------------
 # sp b3lyp/6-311g** Force nosymm scf=(qc)
 -----------------------------------------

 -------------------
 Title Card Required
 -------------------
 Symbolic Z-matrix:
 Charge =  0 Multiplicity = 2

                          Input orientation:
 ---------------------------------------------------------------------
 Center     Atomic      Atomic             Coordinates (Angstroms)
 Number     Number       Type             X           Y           Z
 ---------------------------------------------------------------------
      1          1           0        0.000000    0.000000    0.000000
      2          1           0       -1.450000    0.000000    0.000000
      3          9           0        0.850000    0.000000    0.000000
 ---------------------------------------------------------------------

 SCF Done:  E(UB3LYP) =  -100.961993694     a.u. after    5 cycles

 Alpha  occ. eigenvalues --  -24.63553  -1.20898  -0.56203  -0.39946  -0.39946
 Alpha  occ. eigenvalues --   -0.36604
 Alpha virt. eigenvalues --    0.11884   0.21034   0.42931   0.94087   0.94087
 Alpha virt. eigenvalues --    0.97308   1.15346   1.15346   1.27737   1.44655
 Alpha virt. eigenvalues --    1.44655   1.54507   2.08682   2.20028   2.75152

  Beta  occ. eigenvalues --  -24.63340  -1.20345  -0.54799  -0.39766  -0.39766
  Beta virt. eigenvalues --   -0.14357   0.13539   0.27664   0.47031   0.94321
  Beta virt. eigenvalues --    0.94321   0.97752   1.26403   1.26403   1.35072
  Beta virt. eigenvalues --    1.50172   1.50172   1.59698   2.14858   2.32739

 Mulliken charges and spin densities:
               1          2
     1  H    0.264404   0.008646
     2  H    0.021991   0.943879
     3  F   -0.286394   0.047475
 Sum of Mulliken charges =   0.00000   1.00000

 Dipole moment (field-independent basis, Debye):
    X=             -1.9563    Y=             -0.0000    Z=              0.0000  Tot=              1.9563
 Quadrupole moment (field-independent basis, Debye-Ang):
   XX=             -7.3883   YY=             -6.7002   ZZ=             -6.7002
   XY=             -0.0000   XZ=              0.0000   YZ=              0.0000

  Exact polarizability:       9.755       0.000       2.549      -0.000      -0.000       2.549
 Approx polarizability:       9.962      -0.000       2.557       0.000      -0.000       2.557

 ******    2 imaginary frequencies (negative Signs) ******

                      1                      2                      3
                      A                      A                      A
 Frequencies --  -1363.9539             -1363.9539               720.3073
 Red. masses --      1.0255                 1.0255                 1.0527
 Frc consts  --      1.1241                 1.1241                 0.3218
 IR Inten    --    120.8312               120.8312                 1.8587

                      4
                      A
 Frequencies --   5212.6066
 Red. masses --      1.0589
 Frc consts  --     16.9515
 IR Inten    --    184.3623

 - Thermochemistry -
 -------------------
 Temperature   298.150 Kelvin.  Pressure   1.00000 Atm.
 Atom     1 has atomic number  1 and mass   1.00783

 Molecular mass:    21.01405 amu.
 Principal axes and moments of inertia in atomic units:
                           1         2         3
     Eigenvalues --     0.00000  19.92635  19.92635
           X            1.00000  -0.00000   0.00000
           Y            0.00000   1.00000   0.00000
           Z            0.00000   0.00000   1.00000
 This molecule is a prolate symmetric top.
 Rotational symmetry number  1.
 Rotational temperature (Kelvin)      4.34670
 Rotational constant (GHZ):          90.570601
    2 imaginary frequencies ignored.
 Zero-point vibrational energy      35486.7 (Joules/Mol)
                                    8.48153 (Kcal/Mol)
 Vibrational temperatures:   1036.36  7499.78
          (Kelvin)

 Zero-point correction=                           0.013516 (Hartree/Particle)
 Thermal correction to Energy=                    0.015981
 Thermal correction to Enthalpy=                  0.016926
 Thermal correction to Gibbs Free Energy=        -0.005462
 Sum of electronic and zero-point Energies=           -100.948478
 Sum of electronic and thermal Energies=              -100.946012
 Sum of electronic and thermal Enthalpies=            -100.945068
 Sum of electronic and thermal Free Energies=         -100.967455

                     E (Thermal)             CV                S
                      KCal/Mol        Cal/Mol-Kelvin    Cal/Mol-Kelvin
 Total                   10.028              5.759             47.118
 Electronic               0.000              0.000              1.377
 Translational            0.889              2.981             35.068
 Rotational               0.592              1.987             10.389
 Vibrational              8.547              0.791              0.283

 Normal termination of Gaussian 16 at Fri Aug 22 15:53:05 2025.
