 Gaussian 16, Revision C.01,
 Gaussian 16:  ES64L-G16RevC.01  3-Jul-2019

 -----------------------------------------
 # sp b3lyp/6-311g** Force nosymm scf=(qc)
 -----------------------------------------

 -------------------
 Title Card Required
 -------------------
 Symbolic Z-matrix:
 Charge =  0 Multiplicity = 2

                          Input orientation:
 ---------------------------------------------------------------------
 Center     Atomic      Atomic             Coordinates (Angstroms)
 Number     Number       Type             X           Y           Z
 ---------------------------------------------------------------------
      1          1           0        0.000000    0.000000    0.000000
      2          1           0       -2.800000    0.000000    0.000000
      3          9           0        1.450000    0.000000    0.000000
 ---------------------------------------------------------------------

 SCF Done:  E(UB3LYP) =  -100.866378727     a.u. after    8 cycles

 Alpha  occ. eigenvalues --  -24.64217  -1.09894  -0.43868  -0.36441  -0.36441
 Alpha  occ. eigenvalues --   -0.34967
 Alpha virt. eigenvalues --   -0.12821   0.22113   0.27230   0.93424   0.93424
 Alpha virt. eigenvalues --    1.03543   1.12994   1.22545   1.22545   1.23639
 Alpha virt. eigenvalues --    1.32199   1.32199   1.73311   2.13555   2.20628

  Beta  occ. eigenvalues --  -24.64127  -1.09659  -0.43604  -0.36356  -0.36356
  Beta virt. eigenvalues --   -0.14302  -0.07223   0.24837   0.36736   0.93395
  Beta virt. eigenvalues --    0.93395   1.03775   1.13218   1.31839   1.31839
  Beta virt. eigenvalues --    1.44121   1.44146   1.44146   1.73383   2.20047

 Mulliken charges and spin densities:
               1          2
     1  H    0.346963  -0.018131
     2  H    0.009121   0.989834
     3  F   -0.356084   0.028297
 Sum of Mulliken charges =  -0.00000   1.00000

 Dipole moment (field-independent basis, Debye):
    X=             -2.6705    Y=             -0.0000    Z=              0.0000  Tot=              2.6705
 Quadrupole moment (field-independent basis, Debye-Ang):
   XX=             -9.4275   YY=             -7.2957   ZZ=             -7.2957
   XY=             -0.0000   XZ=              0.0000   YZ=              0.0000

  Exact polarizability:      17.659      -0.000       2.218       0.000      -0.000       2.218
 Approx polarizability:      28.578       0.000       2.150       0.000      -0.000       2.150

 ******    2 imaginary frequencies (negative Signs) ******

                      1                      2                      3
                      A                      A                      A
 Frequencies --  -1152.1188              -171.6475              1039.8948
 Red. masses --      1.0534                 1.0581                 1.0275
 Frc consts  --      0.8238                 0.0184                 0.6546
 IR Inten    --     88.1501                 1.4732               112.1115

                      4
                      A
 Frequencies --   1039.8948
 Red. masses --      1.0275
 Frc consts  --      0.6546
 IR Inten    --    112.1115

 - Thermochemistry -
 -------------------
 Temperature   298.150 Kelvin.  Pressure   1.00000 Atm.
 Atom     1 has atomic number  1 and mass   1.00783

 Molecular mass:    21.01405 amu.
 Principal axes and moments of inertia in atomic units:
                           1         2         3
     Eigenvalues --     0.00000  66.96601  66.96601
           X            1.00000  -0.00000   0.00000
           Y            0.00000   1.00000   0.00000
           Z            0.00000   0.00000   1.00000
 This molecule is a prolate symmetric top.
 Rotational symmetry number  1.
 Rotational temperature (Kelvin)      1.29340
 Rotational constant (GHZ):          26.950109
    2 imaginary frequencies ignored.
 Zero-point vibrational energy      12439.9 (Joules/Mol)
                                    2.97321 (Kcal/Mol)
 Vibrational temperatures:   1496.18  1496.18
          (Kelvin)

 Zero-point correction=                           0.004738 (Hartree/Particle)
 Thermal correction to Energy=                    0.007162
 Thermal correction to Enthalpy=                  0.008106
 Thermal correction to Gibbs Free Energy=        -0.015367
 Sum of electronic and zero-point Energies=           -100.861641
 Sum of electronic and thermal Energies=              -100.859217
 Sum of electronic and thermal Enthalpies=            -100.858273
 Sum of electronic and thermal Free Energies=         -100.881746

                     E (Thermal)             CV                S
                      KCal/Mol        Cal/Mol-Kelvin    Cal/Mol-Kelvin
 Total                    4.494              5.639             49.403
 Electronic               0.000              0.000              1.377
 Translational            0.889              2.981             35.068
 Rotational               0.592              1.987             12.798
 Vibrational              3.013              0.671              0.159

 Normal termination of Gaussian 16 at Fri Aug 22 16:23:24 2025.
