 Gaussian 16, Revision C.01,
 Gaussian 16:  ES64L-G16RevC.01  3-Jul-2019

 -----------------------------------------
 # sp b3lyp/6-311g** Force nosymm scf=(qc)
 -----------------------------------------

 -------------------
 Title Card Required
 -------------------
 Symbolic Z-matrix:
 Charge =  0 Multiplicity = 2

                          Input orientation:
 ---------------------------------------------------------------------
 Center     Atomic      Atomic             Coordinates (Angstroms)
 Number     Number       Type             X           Y           Z
 ---------------------------------------------------------------------
      1          1           0        0.000000    0.000000    0.000000
      2          1           0       -3.150000    0.000000    0.000000
      3          9           0        2.250000    0.000000    0.000000
 ---------------------------------------------------------------------

 SCF Done:  E(UB3LYP) =  -100.773918545     a.u. after   18 cycles

 Alpha  occ. eigenvalues --  -24.67272  -1.08728  -0.38558  -0.38558  -0.36641
 Alpha  occ. eigenvalues --   -0.33143
 Alpha virt. eigenvalues --   -0.22113   0.21217   0.27947   0.92450   0.95640
 Alpha virt. eigenvalues --    0.95640   1.08455   1.21542   1.21542   1.24167
 Alpha virt. eigenvalues --    1.24167   1.24496   1.39669   2.12374   2.14823

  Beta  occ. eigenvalues --  -24.69930  -1.16239  -0.48996  -0.41196  -0.41196
  Beta virt. eigenvalues --   -0.12451  -0.04631   0.32166   0.39887   0.88933
  Beta virt. eigenvalues --    0.94490   0.94490   1.06487   1.38082   1.38082
  Beta virt. eigenvalues --    1.47746   1.47746   1.47793   1.50603   2.33791

 Mulliken charges and spin densities:
               1          2
     1  H    0.134349   0.840328
     2  H    0.002819   0.997239
     3  F   -0.137169  -0.837567
 Sum of Mulliken charges =   0.00000   1.00000

 Dipole moment (field-independent basis, Debye):
    X=             -1.5935    Y=             -0.0000    Z=              0.0000  Tot=              1.5935
 Quadrupole moment (field-independent basis, Debye-Ang):
   XX=             -9.7860   YY=             -7.5222   ZZ=             -7.5222
   XY=             -0.0000   XZ=              0.0000   YZ=             -0.0000

  Exact polarizability:      32.220      -0.000       2.037       0.000      -0.000       2.037
 Approx polarizability:      43.500      -0.000       1.928       0.000      -0.000       1.928

 ******    1 imaginary frequencies (negative Signs) ******

                      1                      2                      3
                      A                      A                      A
 Frequencies --   -792.3017               120.2439               327.5546
 Red. masses --      1.0615                 1.0501                 1.0225
 Frc consts  --      0.3926                 0.0089                 0.0646
 IR Inten    --     83.1119                 0.9558                16.6613

                      4
                      A
 Frequencies --    327.5546
 Red. masses --      1.0225
 Frc consts  --      0.0646
 IR Inten    --     16.6613

 - Thermochemistry -
 -------------------
 Temperature   298.150 Kelvin.  Pressure   1.00000 Atm.
 Atom     1 has atomic number  1 and mass   1.00783

 Molecular mass:    21.01405 amu.
 Principal axes and moments of inertia in atomic units:
                           1         2         3
     Eigenvalues --     0.00000 113.06568 113.06568
           X            1.00000  -0.00000   0.00000
           Y            0.00000   1.00000   0.00000
           Z            0.00000   0.00000   1.00000
 This molecule is a prolate symmetric top.
 Rotational symmetry number  1.
 Rotational temperature (Kelvin)      0.76605
 Rotational constant (GHZ):          15.961883
    1 imaginary frequencies ignored.
 Zero-point vibrational energy       4637.6 (Joules/Mol)
                                    1.10842 (Kcal/Mol)
 Warning -- explicit consideration of   3 degrees of freedom as
           vibrations may cause significant error
 Vibrational temperatures:    173.00   471.28   471.28
          (Kelvin)

 Zero-point correction=                           0.001766 (Hartree/Particle)
 Thermal correction to Energy=                    0.005597
 Thermal correction to Enthalpy=                  0.006541
 Thermal correction to Gibbs Free Energy=        -0.020031
 Sum of electronic and zero-point Energies=           -100.772152
 Sum of electronic and thermal Energies=              -100.768321
 Sum of electronic and thermal Enthalpies=            -100.767377
 Sum of electronic and thermal Free Energies=         -100.793949

                     E (Thermal)             CV                S
                      KCal/Mol        Cal/Mol-Kelvin    Cal/Mol-Kelvin
 Total                    3.512             10.141             55.925
 Electronic               0.000              0.000              1.377
 Translational            0.889              2.981             35.068
 Rotational               0.592              1.987             13.839
 Vibrational              2.031              5.173              5.641
 Vibration     1          0.609              1.932              3.096
 Vibration     2          0.711              1.620              1.272
 Vibration     3          0.711              1.620              1.272

 Normal termination of Gaussian 16 at Fri Aug 22 17:17:29 2025.
