 Gaussian 16, Revision C.01,
 Gaussian 16:  ES64L-G16RevC.01  3-Jul-2019

 -----------------------------------------
 # sp b3lyp/6-311g** Force nosymm scf=(qc)
 -----------------------------------------

 -------------------
 Title Card Required
 -------------------
 Symbolic Z-matrix:
 Charge =  0 Multiplicity = 2

                          Input orientation:
 ---------------------------------------------------------------------
 Center     Atomic      Atomic             Coordinates (Angstroms)
 Number     Number       Type             X           Y           Z
 ---------------------------------------------------------------------
      1          1           0        0.000000    0.000000    0.000000
      2          1           0       -3.900000    0.000000    0.000000
      3          9           0        3.150000    0.000000    0.000000
 ---------------------------------------------------------------------

 SCF Done:  E(UB3LYP) =  -100.759991498     a.u. after   24 cycles

 Alpha  occ. eigenvalues --  -24.74567  -1.20592  -0.53688  -0.45078  -0.45078
 Alpha  occ. eigenvalues --   -0.32402
 Alpha virt. eigenvalues --   -0.07272   0.23968   0.36488   0.88818   0.91985
 Alpha virt. eigenvalues --    0.91985   1.03090   1.25095   1.25095   1.25124
 Alpha virt. eigenvalues --    1.45101   1.45101   1.45471   2.14469   2.41337

  Beta  occ. eigenvalues --  -24.71506  -1.11812  -0.42014  -0.42014  -0.33382
  Beta virt. eigenvalues --   -0.25044  -0.05973   0.23760   0.38144   0.93457
  Beta virt. eigenvalues --    0.93457   0.97678   1.06919   1.23970   1.23970
  Beta virt. eigenvalues --    1.24094   1.46549   1.46686   1.46686   2.14677

 Mulliken charges and spin densities:
               1          2
     1  H    0.027213  -0.969305
     2  H    0.000123   0.999221
     3  F   -0.027337   0.970084
 Sum of Mulliken charges =  -0.00000   1.00000

 Dipole moment (field-independent basis, Debye):
    X=             -0.4447    Y=             -0.0000    Z=             -0.0000  Tot=              0.4447
 Quadrupole moment (field-independent basis, Debye-Ang):
   XX=             -8.0416   YY=             -7.6108   ZZ=             -7.6108
   XY=             -0.0000   XZ=             -0.0000   YZ=             -0.0000

  Exact polarizability:      29.646      -0.000       2.029      -0.000      -0.000       2.029
 Approx polarizability:      28.134      -0.000       1.929      -0.000       0.000       1.929

 ******    2 imaginary frequencies (negative Signs) ******

                      1                      2                      3
                      A                      A                      A
 Frequencies --   -309.5977               -76.2476               103.9389
 Red. masses --      1.0515                 1.0601                 1.0207
 Frc consts  --      0.0594                 0.0036                 0.0065
 IR Inten    --     29.5410                 0.1458                 0.7033

                      4
                      A
 Frequencies --    103.9389
 Red. masses --      1.0207
 Frc consts  --      0.0065
 IR Inten    --      0.7033

 - Thermochemistry -
 -------------------
 Temperature   298.150 Kelvin.  Pressure   1.00000 Atm.
 Atom     1 has atomic number  1 and mass   1.00783

 Molecular mass:    21.01405 amu.
 Principal axes and moments of inertia in atomic units:
                           1         2         3
     Eigenvalues --     0.00000 196.63286 196.63286
           X            1.00000  -0.00000   0.00000
           Y            0.00000   1.00000   0.00000
           Z            0.00000   0.00000   1.00000
 This molecule is a prolate symmetric top.
 Rotational symmetry number  1.
 Rotational temperature (Kelvin)      0.44049
 Rotational constant (GHZ):           9.178228
    2 imaginary frequencies ignored.
 Zero-point vibrational energy       1243.4 (Joules/Mol)
                                    0.29718 (Kcal/Mol)
 Warning -- explicit consideration of   2 degrees of freedom as
           vibrations may cause significant error
 Vibrational temperatures:    149.54   149.54
          (Kelvin)

 Zero-point correction=                           0.000474 (Hartree/Particle)
 Thermal correction to Energy=                    0.004288
 Thermal correction to Enthalpy=                  0.005232
 Thermal correction to Gibbs Free Energy=        -0.022393
 Sum of electronic and zero-point Energies=           -100.759518
 Sum of electronic and thermal Energies=              -100.755703
 Sum of electronic and thermal Enthalpies=            -100.754759
 Sum of electronic and thermal Free Energies=         -100.782384

                     E (Thermal)             CV                S
                      KCal/Mol        Cal/Mol-Kelvin    Cal/Mol-Kelvin
 Total                    2.691              8.860             58.142
 Electronic               0.000              0.000              1.377
 Translational            0.889              2.981             35.068
 Rotational               0.592              1.987             14.939
 Vibrational              1.210              3.892              6.758
 Vibration     1          0.605              1.946              3.379
 Vibration     2          0.605              1.946              3.379

 Normal termination of Gaussian 16 at Fri Aug 22 20:12:13 2025.
