 Gaussian 16, Revision C.01,
 Gaussian 16:  ES64L-G16RevC.01  3-Jul-2019

 -----------------------------------------
 # sp b3lyp/6-311g** Force nosymm scf=(qc)
 -----------------------------------------

 -------------------
 Title Card Required
 -------------------
 Symbolic Z-matrix:
 Charge =  0 Multiplicity = 2

                          Input orientation:
 ---------------------------------------------------------------------
 Center     Atomic      Atomic             Coordinates (Angstroms)
 Number     Number       Type             X           Y           Z
 ---------------------------------------------------------------------
      1          1           0        0.000000    0.000000    0.000000
      2          1           0       -1.600000    0.000000    0.000000
      3          9           0        1.450000    0.000000    0.000000
 ---------------------------------------------------------------------

 SCF Done:  E(UB3LYP) =  -100.880471220     a.u. after   12 cycles

 Alpha  occ. eigenvalues --  -24.64121  -1.10803  -0.46575  -0.38157  -0.36568
 Alpha  occ. eigenvalues --   -0.36568
 Alpha virt. eigenvalues --   -0.07082   0.21251   0.28464   0.93777   0.93777
 Alpha virt. eigenvalues --    0.97396   1.03498   1.16520   1.16520   1.38091
 Alpha virt. eigenvalues --    1.38091   1.47236   1.79700   2.16019   2.38265

  Beta  occ. eigenvalues --  -24.63047  -1.07961  -0.42133  -0.35549  -0.35549
  Beta virt. eigenvalues --   -0.20700  -0.03501   0.24883   0.30292   0.93750
  Beta virt. eigenvalues --    0.93750   1.02675   1.05920   1.25017   1.25017
  Beta virt. eigenvalues --    1.40204   1.40204   1.52800   1.83519   2.21224

 Mulliken charges and spin densities:
               1          2
     1  H    0.273130  -0.169833
     2  H    0.067600   0.837709
     3  F   -0.340730   0.332124
 Sum of Mulliken charges =   0.00000   1.00000

 Dipole moment (field-independent basis, Debye):
    X=             -2.9711    Y=             -0.0000    Z=             -0.0000  Tot=              2.9711
 Quadrupole moment (field-independent basis, Debye-Ang):
   XX=             -8.3186   YY=             -7.2103   ZZ=             -7.2103
   XY=             -0.0000   XZ=             -0.0000   YZ=              0.0000

  Exact polarizability:      31.506      -0.000       2.303      -0.000       0.000       2.303
 Approx polarizability:      44.001      -0.000       2.246      -0.000      -0.000       2.246

 ******    2 imaginary frequencies (negative Signs) ******

                      1                      2                      3
                      A                      A                      A
 Frequencies --  -2403.8815              -389.4507              1050.2009
 Red. masses --      1.0253                 1.0881                 1.0192
 Frc consts  --      3.4909                 0.0972                 0.6623
 IR Inten    --     46.1707                 6.5270                42.6213

                      4
                      A
 Frequencies --   1050.2009
 Red. masses --      1.0192
 Frc consts  --      0.6623
 IR Inten    --     42.6213

 - Thermochemistry -
 -------------------
 Temperature   298.150 Kelvin.  Pressure   1.00000 Atm.
 Atom     1 has atomic number  1 and mass   1.00783

 Molecular mass:    21.01405 amu.
 Principal axes and moments of inertia in atomic units:
                           1         2         3
     Eigenvalues --     0.00000  37.55140  37.55140
           X            1.00000  -0.00000   0.00000
           Y            0.00000   1.00000   0.00000
           Z            0.00000   0.00000   1.00000
 This molecule is a prolate symmetric top.
 Rotational symmetry number  1.
 Rotational temperature (Kelvin)      2.30654
 Rotational constant (GHZ):          48.060554
    2 imaginary frequencies ignored.
 Zero-point vibrational energy      12563.2 (Joules/Mol)
                                    3.00267 (Kcal/Mol)
 Vibrational temperatures:   1511.00  1511.00
          (Kelvin)

 Zero-point correction=                           0.004785 (Hartree/Particle)
 Thermal correction to Energy=                    0.007206
 Thermal correction to Enthalpy=                  0.008150
 Thermal correction to Gibbs Free Energy=        -0.014773
 Sum of electronic and zero-point Energies=           -100.875686
 Sum of electronic and thermal Energies=              -100.873265
 Sum of electronic and thermal Enthalpies=            -100.872321
 Sum of electronic and thermal Free Energies=         -100.895245

                     E (Thermal)             CV                S
                      KCal/Mol        Cal/Mol-Kelvin    Cal/Mol-Kelvin
 Total                    4.522              5.619             48.247
 Electronic               0.000              0.000              1.377
 Translational            0.889              2.981             35.068
 Rotational               0.592              1.987             11.649
 Vibrational              3.041              0.651              0.153

 Normal termination of Gaussian 16 at Fri Aug 22 16:22:27 2025.
