 Gaussian 16, Revision C.01,
 Gaussian 16:  ES64L-G16RevC.01  3-Jul-2019

 -----------------------------------------
 # sp b3lyp/6-311g** Force nosymm scf=(qc)
 -----------------------------------------

 -------------------
 Title Card Required
 -------------------
 Symbolic Z-matrix:
 Charge =  0 Multiplicity = 2

                          Input orientation:
 ---------------------------------------------------------------------
 Center     Atomic      Atomic             Coordinates (Angstroms)
 Number     Number       Type             X           Y           Z
 ---------------------------------------------------------------------
      1          1           0        0.000000    0.000000    0.000000
      2          1           0       -3.750000    0.000000    0.000000
      3          9           0        3.850000    0.000000    0.000000
 ---------------------------------------------------------------------

 SCF Done:  E(UB3LYP) =  -100.758548243     a.u. after   45 cycles

 Alpha  occ. eigenvalues --  -24.75789  -1.21723  -0.54914  -0.46106  -0.46106
 Alpha  occ. eigenvalues --   -0.32251
 Alpha virt. eigenvalues --   -0.06326   0.24217   0.37727   0.86767   0.91228
 Alpha virt. eigenvalues --    0.91228   1.01209   1.25246   1.25246   1.25305
 Alpha virt. eigenvalues --    1.45986   1.46139   1.46139   2.14782   2.41873

  Beta  occ. eigenvalues --  -24.72650  -1.12695  -0.42959  -0.42959  -0.32508
  Beta virt. eigenvalues --   -0.25686  -0.06080   0.24032   0.38168   0.92725
  Beta virt. eigenvalues --    0.92725   0.96094   1.05314   1.24965   1.24965
  Beta virt. eigenvalues --    1.25008   1.46371   1.46537   1.46537   2.14792

 Mulliken charges and spin densities:
               1          2
     1  H    0.003996  -0.994367
     2  H    0.000045   0.998841
     3  F   -0.004041   0.995526
 Sum of Mulliken charges =  -0.00000   1.00000

 Dipole moment (field-independent basis, Debye):
    X=             -0.0812    Y=             -0.0000    Z=             -0.0000  Tot=              0.0812
 Quadrupole moment (field-independent basis, Debye-Ang):
   XX=             -7.0183   YY=             -7.6206   ZZ=             -7.6206
   XY=             -0.0000   XZ=             -0.0000   YZ=             -0.0000

  Exact polarizability:      13.659      -0.000       2.033       0.000       0.000       2.033
 Approx polarizability:      10.074      -0.000       1.936      -0.000       0.000       1.936

 ******    2 imaginary frequencies (negative Signs) ******

                      1                      2                      3
                      A                      A                      A
 Frequencies --   -167.1861               -71.3797                53.4861
 Red. masses --      1.0207                 1.0933                 1.0176
 Frc consts  --      0.0168                 0.0033                 0.0017
 IR Inten    --      2.1895                 0.4580                 0.0156

                      4
                      A
 Frequencies --     53.4861
 Red. masses --      1.0176
 Frc consts  --      0.0017
 IR Inten    --      0.0156

 - Thermochemistry -
 -------------------
 Temperature   298.150 Kelvin.  Pressure   1.00000 Atm.
 Atom     1 has atomic number  1 and mass   1.00783

 Molecular mass:    21.01405 amu.
 Principal axes and moments of inertia in atomic units:
                           1         2         3
     Eigenvalues --     0.00000 238.59584 238.59584
           X            1.00000  -0.00000   0.00000
           Y            0.00000   1.00000   0.00000
           Z            0.00000   0.00000   1.00000
 This molecule is a prolate symmetric top.
 Rotational symmetry number  1.
 Rotational temperature (Kelvin)      0.36302
 Rotational constant (GHZ):           7.564010
    2 imaginary frequencies ignored.
 Zero-point vibrational energy        639.8 (Joules/Mol)
                                    0.15292 (Kcal/Mol)
 Warning -- explicit consideration of   2 degrees of freedom as
           vibrations may cause significant error
 Vibrational temperatures:     76.95    76.95
          (Kelvin)

 Zero-point correction=                           0.000244 (Hartree/Particle)
 Thermal correction to Energy=                    0.004259
 Thermal correction to Enthalpy=                  0.005203
 Thermal correction to Gibbs Free Energy=        -0.023845
 Sum of electronic and zero-point Energies=           -100.758305
 Sum of electronic and thermal Energies=              -100.754289
 Sum of electronic and thermal Enthalpies=            -100.753345
 Sum of electronic and thermal Free Energies=         -100.782393

                     E (Thermal)             CV                S
                      KCal/Mol        Cal/Mol-Kelvin    Cal/Mol-Kelvin
 Total                    2.673              8.920             61.137
 Electronic               0.000              0.000              1.377
 Translational            0.889              2.981             35.068
 Rotational               0.592              1.987             15.323
 Vibrational              1.192              3.952              9.368
 Vibration     1          0.596              1.976              4.684
 Vibration     2          0.596              1.976              4.684

 Normal termination of Gaussian 16 at Sat Aug 23 01:11:39 2025.
