 Gaussian 16, Revision C.01,
 Gaussian 16:  ES64L-G16RevC.01  3-Jul-2019

 -----------------------------------------
 # sp b3lyp/6-311g** Force nosymm scf=(qc)
 -----------------------------------------

 -------------------
 Title Card Required
 -------------------
 Symbolic Z-matrix:
 Charge =  0 Multiplicity = 2

                          Input orientation:
 ---------------------------------------------------------------------
 Center     Atomic      Atomic             Coordinates (Angstroms)
 Number     Number       Type             X           Y           Z
 ---------------------------------------------------------------------
      1          1           0        0.000000    0.000000    0.000000
      2          1           0       -3.450000    0.000000    0.000000
      3          9           0        3.650000    0.000000    0.000000
 ---------------------------------------------------------------------

 SCF Done:  E(UB3LYP) =  -100.758953670     a.u. after   35 cycles

 Alpha  occ. eigenvalues --  -24.75602  -1.21549  -0.54725  -0.45948  -0.45948
 Alpha  occ. eigenvalues --   -0.32312
 Alpha virt. eigenvalues --   -0.06935   0.24379   0.37196   0.87181   0.91346
 Alpha virt. eigenvalues --    0.91346   1.01488   1.25193   1.25193   1.25374
 Alpha virt. eigenvalues --    1.45200   1.45399   1.45399   2.15123   2.41053

  Beta  occ. eigenvalues --  -24.72474  -1.12559  -0.42813  -0.42813  -0.32673
  Beta virt. eigenvalues --   -0.25593  -0.06544   0.24165   0.37872   0.92840
  Beta virt. eigenvalues --    0.92840   0.96412   1.05548   1.24786   1.24786
  Beta virt. eigenvalues --    1.24946   1.45796   1.46030   1.46030   2.15245

 Mulliken charges and spin densities:
               1          2
     1  H    0.007359  -0.989301
     2  H    0.000152   0.997590
     3  F   -0.007511   0.991710
 Sum of Mulliken charges =  -0.00000   1.00000

 Dipole moment (field-independent basis, Debye):
    X=             -0.1437    Y=              0.0000    Z=              0.0000  Tot=              0.1437
 Quadrupole moment (field-independent basis, Debye-Ang):
   XX=             -7.1928   YY=             -7.6237   ZZ=             -7.6237
   XY=             -0.0000   XZ=             -0.0000   YZ=             -0.0000

  Exact polarizability:      19.706      -0.000       2.001      -0.000      -0.000       2.001
 Approx polarizability:      14.858      -0.000       1.935      -0.000       0.000       1.935

 ******    2 imaginary frequencies (negative Signs) ******

                      1                      2                      3
                      A                      A                      A
 Frequencies --   -230.1052               -97.2846                92.0910
 Red. masses --      1.0186                 1.0958                 1.0173
 Frc consts  --      0.0318                 0.0061                 0.0051
 IR Inten    --      5.2442                 1.3142                 0.0784

                      4
                      A
 Frequencies --     92.0926
 Red. masses --      1.0173
 Frc consts  --      0.0051
 IR Inten    --      0.0784

 - Thermochemistry -
 -------------------
 Temperature   298.150 Kelvin.  Pressure   1.00000 Atm.
 Atom     1 has atomic number  1 and mass   1.00783

 Molecular mass:    21.01405 amu.
 Principal axes and moments of inertia in atomic units:
                           1         2         3
     Eigenvalues --     0.00000 209.42693 209.42693
           X            1.00000  -0.00000   0.00000
           Y            0.00000   1.00000   0.00000
           Z            0.00000   0.00000   1.00000
 This molecule is a prolate symmetric top.
 Rotational symmetry number  1.
 Rotational temperature (Kelvin)      0.41358
 Rotational constant (GHZ):           8.617522
    2 imaginary frequencies ignored.
 Zero-point vibrational energy       1101.7 (Joules/Mol)
                                    0.26330 (Kcal/Mol)
 Warning -- explicit consideration of   2 degrees of freedom as
           vibrations may cause significant error
 Vibrational temperatures:    132.50   132.50
          (Kelvin)

 Zero-point correction=                           0.000420 (Hartree/Particle)
 Thermal correction to Energy=                    0.004280
 Thermal correction to Enthalpy=                  0.005224
 Thermal correction to Gibbs Free Energy=        -0.022685
 Sum of electronic and zero-point Energies=           -100.758534
 Sum of electronic and thermal Energies=              -100.754674
 Sum of electronic and thermal Enthalpies=            -100.753730
 Sum of electronic and thermal Free Energies=         -100.781639

                     E (Thermal)             CV                S
                      KCal/Mol        Cal/Mol-Kelvin    Cal/Mol-Kelvin
 Total                    2.686              8.878             58.740
 Electronic               0.000              0.000              1.377
 Translational            0.889              2.981             35.068
 Rotational               0.592              1.987             15.064
 Vibrational              1.204              3.910              7.230
 Vibration     1          0.602              1.955              3.615
 Vibration     2          0.602              1.955              3.615

 Normal termination of Gaussian 16 at Fri Aug 22 23:38:01 2025.
