 Gaussian 16, Revision C.01,
 Gaussian 16:  ES64L-G16RevC.01  3-Jul-2019

 -----------------------------------------
 # sp b3lyp/6-311g** Force nosymm scf=(qc)
 -----------------------------------------

 -------------------
 Title Card Required
 -------------------
 Symbolic Z-matrix:
 Charge =  0 Multiplicity = 2

                          Input orientation:
 ---------------------------------------------------------------------
 Center     Atomic      Atomic             Coordinates (Angstroms)
 Number     Number       Type             X           Y           Z
 ---------------------------------------------------------------------
      1          1           0        0.000000    0.000000    0.000000
      2          1           0       -0.550000    0.000000    0.000000
      3          9           0        0.500000    0.000000    0.000000
 ---------------------------------------------------------------------

 SCF Done:  E(UB3LYP) =  -99.9740868783     a.u. after    6 cycles

 Alpha  occ. eigenvalues --  -24.74081  -1.63140  -0.78619  -0.54684  -0.54684
 Alpha  occ. eigenvalues --   -0.22351
 Alpha virt. eigenvalues --    0.16030   0.21521   0.80306   0.80407   0.80407
 Alpha virt. eigenvalues --    0.98775   1.13459   1.13459   1.42037   1.49574
 Alpha virt. eigenvalues --    2.13716   2.13716   2.31933   3.66678   3.66678

  Beta  occ. eigenvalues --  -24.73314  -1.60297  -0.76738  -0.54054  -0.54054
  Beta virt. eigenvalues --   -0.05218   0.16847   0.28298   0.81113   0.81646
  Beta virt. eigenvalues --    0.81646   1.04975   1.19030   1.19030   1.44893
  Beta virt. eigenvalues --    1.52745   2.19207   2.19207   2.40194   3.67042

 Mulliken charges and spin densities:
               1          2
     1  H    0.121665  -0.167664
     2  H   -0.275988   1.159171
     3  F    0.154323   0.008493
 Sum of Mulliken charges =   0.00000   1.00000

 Dipole moment (field-independent basis, Debye):
    X=              0.4838    Y=             -0.0000    Z=             -0.0000  Tot=              0.4838
 Quadrupole moment (field-independent basis, Debye-Ang):
   XX=             -7.8451   YY=             -6.5764   ZZ=             -6.5764
   XY=             -0.0000   XZ=             -0.0000   YZ=             -0.0000

  Exact polarizability:       7.865      -0.000       2.363      -0.000       0.000       2.363
 Approx polarizability:       7.343       0.000       2.490      -0.000       0.000       2.490

 ******    2 imaginary frequencies (negative Signs) ******

                      1                      2                      3
                      A                      A                      A
 Frequencies --  -9917.9532             -9917.9532              6175.3216
 Red. masses --      1.0191                 1.0191                 1.0627
 Frc consts  --     59.0648                59.0648                23.8762
 IR Inten    --    250.7205               250.7205               891.4062

                      4
                      A
 Frequencies --  19945.8036
 Red. masses --      1.0490
 Frc consts  --    245.8762
 IR Inten    --      4.1734

 - Thermochemistry -
 -------------------
 Temperature   298.150 Kelvin.  Pressure   1.00000 Atm.
 Atom     1 has atomic number  1 and mass   1.00783

 Molecular mass:    21.01405 amu.
 Principal axes and moments of inertia in atomic units:
                           1         2         3
     Eigenvalues --     0.00000   4.45297   4.45297
           X            1.00000  -0.00000   0.00000
           Y            0.00000   1.00000   0.00000
           Z            0.00000   0.00000   1.00000
 This molecule is a prolate symmetric top.
 Rotational symmetry number  1.
 Rotational temperature (Kelvin)     19.45082
 Rotational constant (GHZ):         405.289239
    2 imaginary frequencies ignored.
 Zero-point vibrational energy     156239.0 (Joules/Mol)
                                   37.34202 (Kcal/Mol)
 Vibrational temperatures:   8884.91 28697.56
          (Kelvin)

 Zero-point correction=                           0.059508 (Hartree/Particle)
 Thermal correction to Energy=                    0.061869
 Thermal correction to Enthalpy=                  0.062813
 Thermal correction to Gibbs Free Energy=         0.041975
 Sum of electronic and zero-point Energies=            -99.914579
 Sum of electronic and thermal Energies=               -99.912218
 Sum of electronic and thermal Enthalpies=             -99.911274
 Sum of electronic and thermal Free Energies=          -99.932112

                     E (Thermal)             CV                S
                      KCal/Mol        Cal/Mol-Kelvin    Cal/Mol-Kelvin
 Total                   38.823              4.968             43.857
 Electronic               0.000              0.000              1.377
 Translational            0.889              2.981             35.068
 Rotational               0.592              1.987              7.412
 Vibrational             37.342              0.000              0.000

 Normal termination of Gaussian 16 at Fri Aug 22 15:35:53 2025.
