 Gaussian 16, Revision C.01,
 Gaussian 16:  ES64L-G16RevC.01  3-Jul-2019

 -----------------------------------------
 # sp b3lyp/6-311g** Force nosymm scf=(qc)
 -----------------------------------------

 -------------------
 Title Card Required
 -------------------
 Symbolic Z-matrix:
 Charge =  0 Multiplicity = 2

                          Input orientation:
 ---------------------------------------------------------------------
 Center     Atomic      Atomic             Coordinates (Angstroms)
 Number     Number       Type             X           Y           Z
 ---------------------------------------------------------------------
      1          1           0        0.000000    0.000000    0.000000
      2          1           0       -2.800000    0.000000    0.000000
      3          9           0        2.100000    0.000000    0.000000
 ---------------------------------------------------------------------

 SCF Done:  E(UB3LYP) =  -100.780339823     a.u. after   24 cycles

 Alpha  occ. eigenvalues --  -24.66069  -1.07935  -0.37664  -0.37581  -0.37581
 Alpha  occ. eigenvalues --   -0.33504
 Alpha virt. eigenvalues --   -0.21118   0.21776   0.27224   0.91334   0.95887
 Alpha virt. eigenvalues --    0.95887   1.08654   1.21620   1.21620   1.23539
 Alpha virt. eigenvalues --    1.23539   1.24662   1.47822   2.12781   2.14580

  Beta  occ. eigenvalues --  -24.68550  -1.14901  -0.47564  -0.40033  -0.40033
  Beta virt. eigenvalues --   -0.13900  -0.04944   0.31577   0.38818   0.89257
  Beta virt. eigenvalues --    0.95017   0.95017   1.06686   1.36442   1.36442
  Beta virt. eigenvalues --    1.46845   1.46845   1.47612   1.56367   2.31814

 Mulliken charges and spin densities:
               1          2
     1  H    0.167797   0.788059
     2  H    0.007625   0.992574
     3  F   -0.175422  -0.780633
 Sum of Mulliken charges =   0.00000   1.00000

 Dipole moment (field-independent basis, Debye):
    X=             -1.9364    Y=             -0.0000    Z=              0.0000  Tot=              1.9364
 Quadrupole moment (field-independent basis, Debye-Ang):
   XX=             -9.9608   YY=             -7.4915   ZZ=             -7.4915
   XY=             -0.0000   XZ=              0.0000   YZ=              0.0000

  Exact polarizability:      34.963      -0.000       2.049       0.000      -0.000       2.049
 Approx polarizability:      48.085      -0.000       1.939       0.000      -0.000       1.939

 ******    1 imaginary frequencies (negative Signs) ******

                      1                      2                      3
                      A                      A                      A
 Frequencies --   -954.1418               168.8422               401.5980
 Red. masses --      1.0632                 1.0485                 1.0218
 Frc consts  --      0.5703                 0.0176                 0.0971
 IR Inten    --     70.6347                 5.8238                24.8080

                      4
                      A
 Frequencies --    401.5980
 Red. masses --      1.0218
 Frc consts  --      0.0971
 IR Inten    --     24.8080

 - Thermochemistry -
 -------------------
 Temperature   298.150 Kelvin.  Pressure   1.00000 Atm.
 Atom     1 has atomic number  1 and mass   1.00783

 Molecular mass:    21.01405 amu.
 Principal axes and moments of inertia in atomic units:
                           1         2         3
     Eigenvalues --     0.00000  93.82608  93.82608
           X            1.00000  -0.00000   0.00000
           Y            0.00000   1.00000   0.00000
           Z            0.00000   0.00000   1.00000
 This molecule is a prolate symmetric top.
 Rotational symmetry number  1.
 Rotational temperature (Kelvin)      0.92313
 Rotational constant (GHZ):          19.234962
    1 imaginary frequencies ignored.
 Zero-point vibrational energy       5814.1 (Joules/Mol)
                                    1.38960 (Kcal/Mol)
 Warning -- explicit consideration of   3 degrees of freedom as
           vibrations may cause significant error
 Vibrational temperatures:    242.93   577.81   577.81
          (Kelvin)

 Zero-point correction=                           0.002214 (Hartree/Particle)
 Thermal correction to Energy=                    0.005802
 Thermal correction to Enthalpy=                  0.006746
 Thermal correction to Gibbs Free Energy=        -0.019042
 Sum of electronic and zero-point Energies=           -100.778125
 Sum of electronic and thermal Energies=              -100.774538
 Sum of electronic and thermal Enthalpies=            -100.773594
 Sum of electronic and thermal Free Energies=         -100.799382

                     E (Thermal)             CV                S
                      KCal/Mol        Cal/Mol-Kelvin    Cal/Mol-Kelvin
 Total                    3.641              9.782             54.276
 Electronic               0.000              0.000              1.377
 Translational            0.889              2.981             35.068
 Rotational               0.592              1.987             13.468
 Vibrational              2.159              4.814              4.362
 Vibration     1          0.625              1.881              2.448
 Vibration     2          0.767              1.467              0.957
 Vibration     3          0.767              1.467              0.957

 Normal termination of Gaussian 16 at Fri Aug 22 17:04:37 2025.
