 Gaussian 16, Revision C.01,
 Gaussian 16:  ES64L-G16RevC.01  3-Jul-2019

 -----------------------------------------
 # sp b3lyp/6-311g** Force nosymm scf=(qc)
 -----------------------------------------

 -------------------
 Title Card Required
 -------------------
 Symbolic Z-matrix:
 Charge =  0 Multiplicity = 2

                          Input orientation:
 ---------------------------------------------------------------------
 Center     Atomic      Atomic             Coordinates (Angstroms)
 Number     Number       Type             X           Y           Z
 ---------------------------------------------------------------------
      1          1           0        0.000000    0.000000    0.000000
      2          1           0       -3.500000    0.000000    0.000000
      3          9           0        3.500000    0.000000    0.000000
 ---------------------------------------------------------------------

 SCF Done:  E(UB3LYP) =  -100.759136143     a.u. after   27 cycles

 Alpha  occ. eigenvalues --  -24.75384  -1.21347  -0.54507  -0.45765  -0.45765
 Alpha  occ. eigenvalues --   -0.32341
 Alpha virt. eigenvalues --   -0.07011   0.24289   0.36995   0.87600   0.91482
 Alpha virt. eigenvalues --    0.91482   1.01816   1.25164   1.25164   1.25316
 Alpha virt. eigenvalues --    1.45218   1.45261   1.45261   2.15019   2.41209

  Beta  occ. eigenvalues --  -24.72270  -1.12400  -0.42644  -0.42644  -0.32828
  Beta virt. eigenvalues --   -0.25482  -0.06476   0.24055   0.37925   0.92971
  Beta virt. eigenvalues --    0.92971   0.96735   1.05824   1.24606   1.24606
  Beta virt. eigenvalues --    1.24738   1.45888   1.46122   1.46122   2.15221

 Mulliken charges and spin densities:
               1          2
     1  H    0.011380  -0.985173
     2  H    0.000181   0.997886
     3  F   -0.011561   0.987287
 Sum of Mulliken charges =  -0.00000   1.00000

 Dipole moment (field-independent basis, Debye):
    X=             -0.2112    Y=              0.0000    Z=              0.0000  Tot=              0.2112
 Quadrupole moment (field-independent basis, Debye-Ang):
   XX=             -7.3971   YY=             -7.6217   ZZ=             -7.6217
   XY=             -0.0000   XZ=             -0.0000   YZ=             -0.0000

  Exact polarizability:      23.659      -0.000       2.034      -0.000      -0.000       2.034
 Approx polarizability:      18.725      -0.000       1.933      -0.000       0.000       1.933

 ******    2 imaginary frequencies (negative Signs) ******

                      1                      2                      3
                      A                      A                      A
 Frequencies --   -245.5207              -103.2215                75.9409
 Red. masses --      1.0275                 1.0857                 1.0179
 Frc consts  --      0.0365                 0.0068                 0.0035
 IR Inten    --     10.3382                 1.2633                 0.1140

                      4
                      A
 Frequencies --     75.9410
 Red. masses --      1.0179
 Frc consts  --      0.0035
 IR Inten    --      0.1140

 - Thermochemistry -
 -------------------
 Temperature   298.150 Kelvin.  Pressure   1.00000 Atm.
 Atom     1 has atomic number  1 and mass   1.00783

 Molecular mass:    21.01405 amu.
 Principal axes and moments of inertia in atomic units:
                           1         2         3
     Eigenvalues --     0.00000 201.40936 201.40936
           X            1.00000  -0.00000   0.00000
           Y            0.00000   1.00000   0.00000
           Z            0.00000   0.00000   1.00000
 This molecule is a prolate symmetric top.
 Rotational symmetry number  1.
 Rotational temperature (Kelvin)      0.43004
 Rotational constant (GHZ):           8.960563
    2 imaginary frequencies ignored.
 Zero-point vibrational energy        908.5 (Joules/Mol)
                                    0.21713 (Kcal/Mol)
 Warning -- explicit consideration of   2 degrees of freedom as
           vibrations may cause significant error
 Vibrational temperatures:    109.26   109.26
          (Kelvin)

 Zero-point correction=                           0.000346 (Hartree/Particle)
 Thermal correction to Energy=                    0.004270
 Thermal correction to Enthalpy=                  0.005214
 Thermal correction to Gibbs Free Energy=        -0.023017
 Sum of electronic and zero-point Energies=           -100.758790
 Sum of electronic and thermal Energies=              -100.754866
 Sum of electronic and thermal Enthalpies=            -100.753922
 Sum of electronic and thermal Free Energies=         -100.782154

                     E (Thermal)             CV                S
                      KCal/Mol        Cal/Mol-Kelvin    Cal/Mol-Kelvin
 Total                    2.679              8.898             59.418
 Electronic               0.000              0.000              1.377
 Translational            0.889              2.981             35.068
 Rotational               0.592              1.987             14.986
 Vibrational              1.198              3.930              7.986
 Vibration     1          0.599              1.965              3.993
 Vibration     2          0.599              1.965              3.993

 Normal termination of Gaussian 16 at Fri Aug 22 22:11:19 2025.
