 Gaussian 16, Revision C.01,
 Gaussian 16:  ES64L-G16RevC.01  3-Jul-2019

 -----------------------------------------
 # sp b3lyp/6-311g** Force nosymm scf=(qc)
 -----------------------------------------

 -------------------
 Title Card Required
 -------------------
 Symbolic Z-matrix:
 Charge =  0 Multiplicity = 2

                          Input orientation:
 ---------------------------------------------------------------------
 Center     Atomic      Atomic             Coordinates (Angstroms)
 Number     Number       Type             X           Y           Z
 ---------------------------------------------------------------------
      1          1           0        0.000000    0.000000    0.000000
      2          1           0       -1.550000    0.000000    0.000000
      3          9           0        3.050000    0.000000    0.000000
 ---------------------------------------------------------------------

 SCF Done:  E(UB3LYP) =  -100.813340988     a.u. after   32 cycles

 Alpha  occ. eigenvalues --  -24.75308  -1.21281  -0.54440  -0.45717  -0.45717
 Alpha  occ. eigenvalues --   -0.34320
 Alpha virt. eigenvalues --   -0.10675   0.24645   0.30059   0.89265   0.91481
 Alpha virt. eigenvalues --    0.91481   1.03621   1.06080   1.20539   1.20539
 Alpha virt. eigenvalues --    1.39611   1.39611   1.77679   2.20090   2.45489

  Beta  occ. eigenvalues --  -24.72218  -1.12407  -0.42621  -0.42621  -0.34149
  Beta virt. eigenvalues --   -0.25667  -0.10434   0.24970   0.30354   0.92957
  Beta virt. eigenvalues --    0.92957   0.98070   1.06201   1.07790   1.20725
  Beta virt. eigenvalues --    1.20725   1.39787   1.39787   1.78003   2.20706

 Mulliken charges and spin densities:
               1          2
     1  H   -0.000635  -0.358741
     2  H    0.017117   0.379323
     3  F   -0.016482   0.979418
 Sum of Mulliken charges =   0.00000   1.00000

 Dipole moment (field-independent basis, Debye):
    X=             -0.3817    Y=              0.0000    Z=              0.0000  Tot=              0.3817
 Quadrupole moment (field-independent basis, Debye-Ang):
   XX=             -6.1624   YY=             -7.7432   ZZ=             -7.7432
   XY=              0.0001   XZ=              0.0000   YZ=              0.0000

  Exact polarizability:      50.956      -0.000       2.022      -0.000       0.000       2.022
 Approx polarizability:      64.527       0.000       2.015       0.000       0.000       2.015

 ******    2 imaginary frequencies (negative Signs) ******

                      1                      2                      3
                      A                      A                      A
 Frequencies --  -2102.6477              -176.6761              1115.1174
 Red. masses --      1.0079                 1.1084                 1.0118
 Frc consts  --      2.6254                 0.0204                 0.7413
 IR Inten    --    185.4533                14.7279                 0.0505

                      4
                      A
 Frequencies --   1115.1174
 Red. masses --      1.0118
 Frc consts  --      0.7413
 IR Inten    --      0.0505

 - Thermochemistry -
 -------------------
 Temperature   298.150 Kelvin.  Pressure   1.00000 Atm.
 Atom     1 has atomic number  1 and mass   1.00783

 Molecular mass:    21.01405 amu.
 Principal axes and moments of inertia in atomic units:
                           1         2         3
     Eigenvalues --     0.00000  99.53341  99.53341
           X            1.00000  -0.00000   0.00000
           Y            0.00000   1.00000   0.00000
           Z            0.00000   0.00000   1.00000
 This molecule is a prolate symmetric top.
 Rotational symmetry number  1.
 Rotational temperature (Kelvin)      0.87020
 Rotational constant (GHZ):          18.132014
    2 imaginary frequencies ignored.
 Zero-point vibrational energy      13339.8 (Joules/Mol)
                                    3.18828 (Kcal/Mol)
 Vibrational temperatures:   1604.41  1604.41
          (Kelvin)

 Zero-point correction=                           0.005081 (Hartree/Particle)
 Thermal correction to Energy=                    0.007488
 Thermal correction to Enthalpy=                  0.008432
 Thermal correction to Gibbs Free Energy=        -0.015395
 Sum of electronic and zero-point Energies=           -100.808260
 Sum of electronic and thermal Energies=              -100.805853
 Sum of electronic and thermal Enthalpies=            -100.804909
 Sum of electronic and thermal Free Energies=         -100.828736

                     E (Thermal)             CV                S
                      KCal/Mol        Cal/Mol-Kelvin    Cal/Mol-Kelvin
 Total                    4.699              5.503             50.148
 Electronic               0.000              0.000              1.377
 Translational            0.889              2.981             35.068
 Rotational               0.592              1.987             13.586
 Vibrational              3.218              0.535              0.117

 Normal termination of Gaussian 16 at Fri Aug 22 19:42:48 2025.
