 Gaussian 16, Revision C.01,
 Gaussian 16:  ES64L-G16RevC.01  3-Jul-2019

 -----------------------------------------
 # sp b3lyp/6-311g** Force nosymm scf=(qc)
 -----------------------------------------

 -------------------
 Title Card Required
 -------------------
 Symbolic Z-matrix:
 Charge =  0 Multiplicity = 2

                          Input orientation:
 ---------------------------------------------------------------------
 Center     Atomic      Atomic             Coordinates (Angstroms)
 Number     Number       Type             X           Y           Z
 ---------------------------------------------------------------------
      1          1           0        0.000000    0.000000    0.000000
      2          1           0       -1.450000    0.000000    0.000000
      3          9           0        3.300000    0.000000    0.000000
 ---------------------------------------------------------------------

 SCF Done:  E(UB3LYP) =  -100.828482914     a.u. after  131 cycles

 Alpha  occ. eigenvalues --  -24.76500  -1.22358  -0.55554  -0.46765  -0.46707
 Alpha  occ. eigenvalues --   -0.33892
 Alpha virt. eigenvalues --   -0.08958   0.24653   0.30860   0.85863   0.90738
 Alpha virt. eigenvalues --    0.92496   1.01789   1.08953   1.19217   1.19221
 Alpha virt. eigenvalues --    1.43229   1.43233   1.86243   2.24140   2.48577

  Beta  occ. eigenvalues --  -24.73342  -1.13278  -0.43600  -0.43540  -0.33888
  Beta virt. eigenvalues --   -0.26190  -0.08952   0.24666   0.30902   0.92238
  Beta virt. eigenvalues --    0.94029   0.95325   1.05837   1.08971   1.19216
  Beta virt. eigenvalues --    1.19220   1.43229   1.43233   1.86250   2.24141

 Mulliken charges and spin densities:
               1          2
     1  H    0.000100   0.001742
     2  H   -0.004339  -0.002274
     3  F    0.004239   1.000532
 Sum of Mulliken charges =   0.00000   1.00000

 Dipole moment (field-independent basis, Debye):
    X=              0.0704    Y=             -0.0000    Z=              0.0000  Tot=              0.0704
 Quadrupole moment (field-independent basis, Debye-Ang):
   XX=             -6.2083   YY=             -7.5653   ZZ=             -7.0260
   XY=             -0.0000   XZ=              0.0000   YZ=             -0.3376

  Exact polarizability:      21.850      -0.000       2.137       0.000      -0.182       2.427
 Approx polarizability:      39.988      -0.000       2.160       0.000      -0.227       2.523

 ******    2 imaginary frequencies (negative Signs) ******

                      1                      2                      3
                      A                      A                      A
 Frequencies --  -1222.2904               -41.6568              1265.8607
 Red. masses --      1.0078                 1.1085                 1.0110
 Frc consts  --      0.8871                 0.0011                 0.9545
 IR Inten    --      0.4438                 0.3178                 0.0037

                      4
                      A
 Frequencies --   1267.2215
 Red. masses --      1.0110
 Frc consts  --      0.9566
 IR Inten    --      0.0031

 - Thermochemistry -
 -------------------
 Temperature   298.150 Kelvin.  Pressure   1.00000 Atm.
 Atom     1 has atomic number  1 and mass   1.00783

 Molecular mass:    21.01405 amu.
 Principal axes and moments of inertia in atomic units:
                           1         2         3
     Eigenvalues --     0.00000 109.21047 109.21047
           X            1.00000  -0.00000   0.00000
           Y            0.00000   1.00000   0.00000
           Z            0.00000   0.00000   1.00000
 This molecule is a prolate symmetric top.
 Rotational symmetry number  1.
 Rotational temperature (Kelvin)      0.79309
 Rotational constant (GHZ):          16.525349
    2 imaginary frequencies ignored.
 Zero-point vibrational energy      15151.2 (Joules/Mol)
                                    3.62122 (Kcal/Mol)
 Vibrational temperatures:   1821.29  1823.25
          (Kelvin)

 Zero-point correction=                           0.005771 (Hartree/Particle)
 Thermal correction to Energy=                    0.008157
 Thermal correction to Enthalpy=                  0.009101
 Thermal correction to Gibbs Free Energy=        -0.014788
 Sum of electronic and zero-point Energies=           -100.822712
 Sum of electronic and thermal Energies=              -100.820326
 Sum of electronic and thermal Enthalpies=            -100.819382
 Sum of electronic and thermal Free Energies=         -100.843271

                     E (Thermal)             CV                S
                      KCal/Mol        Cal/Mol-Kelvin    Cal/Mol-Kelvin
 Total                    5.119              5.299             50.278
 Electronic               0.000              0.000              1.377
 Translational            0.889              2.981             35.068
 Rotational               0.592              1.987             13.770
 Vibrational              3.637              0.331              0.063

 Normal termination of Gaussian 16 at Fri Aug 22 20:45:49 2025.
