 Gaussian 16, Revision C.01,
 Gaussian 16:  ES64L-G16RevC.01  3-Jul-2019

 -----------------------------------------
 # sp b3lyp/6-311g** Force nosymm scf=(qc)
 -----------------------------------------

 -------------------
 Title Card Required
 -------------------
 Symbolic Z-matrix:
 Charge =  0 Multiplicity = 2

                          Input orientation:
 ---------------------------------------------------------------------
 Center     Atomic      Atomic             Coordinates (Angstroms)
 Number     Number       Type             X           Y           Z
 ---------------------------------------------------------------------
      1          1           0        0.000000    0.000000    0.000000
      2          1           0       -2.050000    0.000000    0.000000
      3          9           0        2.900000    0.000000    0.000000
 ---------------------------------------------------------------------

 SCF Done:  E(UB3LYP) =  -100.774973544     a.u. after   23 cycles

 Alpha  occ. eigenvalues --  -24.73921  -1.19987  -0.53038  -0.44532  -0.44532
 Alpha  occ. eigenvalues --   -0.33814
 Alpha virt. eigenvalues --   -0.11849   0.25402   0.32068   0.89967   0.92377
 Alpha virt. eigenvalues --    0.92377   1.04587   1.18902   1.24129   1.24129
 Alpha virt. eigenvalues --    1.36781   1.36781   1.48117   2.12345   2.36010

  Beta  occ. eigenvalues --  -24.70910  -1.11362  -0.41520  -0.41520  -0.34055
  Beta virt. eigenvalues --   -0.24747  -0.11068   0.26048   0.32611   0.93831
  Beta virt. eigenvalues --    0.93831   0.98559   1.08453   1.18903   1.23802
  Beta virt. eigenvalues --    1.23802   1.38019   1.38019   1.49065   2.13546

 Mulliken charges and spin densities:
               1          2
     1  H    0.024567  -0.836629
     2  H    0.016157   0.882833
     3  F   -0.040724   0.953796
 Sum of Mulliken charges =  -0.00000   1.00000

 Dipole moment (field-independent basis, Debye):
    X=             -0.7634    Y=              0.0000    Z=             -0.0000  Tot=              0.7634
 Quadrupole moment (field-independent basis, Debye-Ang):
   XX=             -7.5853   YY=             -7.6969   ZZ=             -7.6969
   XY=              0.0000   XZ=             -0.0000   YZ=              0.0000

  Exact polarizability:      58.551      -0.000       2.005       0.000       0.000       2.005
 Approx polarizability:      54.640      -0.000       1.928       0.000      -0.000       1.928

 ******    2 imaginary frequencies (negative Signs) ******

                      1                      2                      3
                      A                      A                      A
 Frequencies --  -1283.2336              -267.3876               510.5689
 Red. masses --      1.0081                 1.1081                 1.0143
 Frc consts  --      0.9781                 0.0467                 0.1558
 IR Inten    --     40.1741                33.0103                 0.2826

                      4
                      A
 Frequencies --    510.5689
 Red. masses --      1.0143
 Frc consts  --      0.1558
 IR Inten    --      0.2826

 - Thermochemistry -
 -------------------
 Temperature   298.150 Kelvin.  Pressure   1.00000 Atm.
 Atom     1 has atomic number  1 and mass   1.00783

 Molecular mass:    21.01405 amu.
 Principal axes and moments of inertia in atomic units:
                           1         2         3
     Eigenvalues --     0.00000 107.81590 107.81590
           X            1.00000  -0.00000   0.00000
           Y            0.00000   1.00000   0.00000
           Z            0.00000   0.00000   1.00000
 This molecule is a prolate symmetric top.
 Rotational symmetry number  1.
 Rotational temperature (Kelvin)      0.80335
 Rotational constant (GHZ):          16.739101
    2 imaginary frequencies ignored.
 Zero-point vibrational energy       6107.8 (Joules/Mol)
                                    1.45979 (Kcal/Mol)
 Warning -- explicit consideration of   2 degrees of freedom as
           vibrations may cause significant error
 Vibrational temperatures:    734.59   734.59
          (Kelvin)

 Zero-point correction=                           0.002326 (Hartree/Particle)
 Thermal correction to Energy=                    0.005120
 Thermal correction to Enthalpy=                  0.006064
 Thermal correction to Gibbs Free Energy=        -0.018384
 Sum of electronic and zero-point Energies=           -100.772647
 Sum of electronic and thermal Energies=              -100.769854
 Sum of electronic and thermal Enthalpies=            -100.768910
 Sum of electronic and thermal Free Energies=         -100.793357

                     E (Thermal)             CV                S
                      KCal/Mol        Cal/Mol-Kelvin    Cal/Mol-Kelvin
 Total                    3.213              7.421             51.454
 Electronic               0.000              0.000              1.377
 Translational            0.889              2.981             35.068
 Rotational               0.592              1.987             13.745
 Vibrational              1.731              2.453              1.264
 Vibration     1          0.866              1.227              0.632
 Vibration     2          0.866              1.227              0.632

 Normal termination of Gaussian 16 at Fri Aug 22 19:03:11 2025.
