 Gaussian 16, Revision C.01,
 Gaussian 16:  ES64L-G16RevC.01  3-Jul-2019

 -----------------------------------------
 # sp b3lyp/6-311g** Force nosymm scf=(qc)
 -----------------------------------------

 -------------------
 Title Card Required
 -------------------
 Symbolic Z-matrix:
 Charge =  0 Multiplicity = 2

                          Input orientation:
 ---------------------------------------------------------------------
 Center     Atomic      Atomic             Coordinates (Angstroms)
 Number     Number       Type             X           Y           Z
 ---------------------------------------------------------------------
      1          1           0        0.000000    0.000000    0.000000
      2          1           0       -1.250000    0.000000    0.000000
      3          9           0        1.600000    0.000000    0.000000
 ---------------------------------------------------------------------

 SCF Done:  E(UB3LYP) =  -100.888582292     a.u. after   12 cycles

 Alpha  occ. eigenvalues --  -24.67795  -1.14550  -0.49722  -0.39672  -0.39671
 Alpha  occ. eigenvalues --   -0.39671
 Alpha virt. eigenvalues --   -0.03691   0.20557   0.31132   0.92042   0.92042
 Alpha virt. eigenvalues --    0.97053   1.05589   1.10747   1.10747   1.49311
 Alpha virt. eigenvalues --    1.49311   1.51790   2.03998   2.24179   2.50893

  Beta  occ. eigenvalues --  -24.65657  -1.08686  -0.41345  -0.37592  -0.37592
  Beta virt. eigenvalues --   -0.23276  -0.00819   0.22702   0.32166   0.92662
  Beta virt. eigenvalues --    0.92662   1.02769   1.08423   1.14449   1.14449
  Beta virt. eigenvalues --    1.50963   1.50963   1.56051   2.07332   2.27508

 Mulliken charges and spin densities:
               1          2
     1  H    0.161968  -0.185603
     2  H    0.068171   0.524637
     3  F   -0.230139   0.660966
 Sum of Mulliken charges =   0.00000   1.00000

 Dipole moment (field-independent basis, Debye):
    X=             -2.1961    Y=              0.0000    Z=              0.0000  Tot=              2.1961
 Quadrupole moment (field-independent basis, Debye-Ang):
   XX=             -7.6780   YY=             -7.2246   ZZ=             -7.2246
   XY=             -0.0000   XZ=             -0.0000   YZ=             -0.0000

  Exact polarizability:      36.740      -0.000       2.307      -0.000      -0.000       2.307
 Approx polarizability:      56.798       0.000       2.268       0.000       0.000       2.268

 ******    2 imaginary frequencies (negative Signs) ******

                      1                      2                      3
                      A                      A                      A
 Frequencies --  -2436.7243               -68.2816              1229.0984
 Red. masses --      1.0214                 1.0926                 1.0152
 Frc consts  --      3.5731                 0.0030                 0.9036
 IR Inten    --   1048.1828                10.8097                 7.3146

                      4
                      A
 Frequencies --   1229.0984
 Red. masses --      1.0152
 Frc consts  --      0.9036
 IR Inten    --      7.3146

 - Thermochemistry -
 -------------------
 Temperature   298.150 Kelvin.  Pressure   1.00000 Atm.
 Atom     1 has atomic number  1 and mass   1.00783

 Molecular mass:    21.01405 amu.
 Principal axes and moments of inertia in atomic units:
                           1         2         3
     Eigenvalues --     0.00000  35.02836  35.02836
           X            1.00000  -0.00000   0.00000
           Y            0.00000   1.00000   0.00000
           Z            0.00000   0.00000   1.00000
 This molecule is a prolate symmetric top.
 Rotational symmetry number  1.
 Rotational temperature (Kelvin)      2.47268
 Rotational constant (GHZ):          51.522286
    2 imaginary frequencies ignored.
 Zero-point vibrational energy      14703.3 (Joules/Mol)
                                    3.51417 (Kcal/Mol)
 Vibrational temperatures:   1768.40  1768.40
          (Kelvin)

 Zero-point correction=                           0.005600 (Hartree/Particle)
 Thermal correction to Energy=                    0.007990
 Thermal correction to Enthalpy=                  0.008935
 Thermal correction to Gibbs Free Energy=        -0.013886
 Sum of electronic and zero-point Energies=           -100.882982
 Sum of electronic and thermal Energies=              -100.880592
 Sum of electronic and thermal Enthalpies=            -100.879648
 Sum of electronic and thermal Free Energies=         -100.902468

                     E (Thermal)             CV                S
                      KCal/Mol        Cal/Mol-Kelvin    Cal/Mol-Kelvin
 Total                    5.014              5.341             48.029
 Electronic               0.000              0.000              1.377
 Translational            0.889              2.981             35.068
 Rotational               0.592              1.987             11.510
 Vibrational              3.533              0.373              0.073

 Normal termination of Gaussian 16 at Fri Aug 22 16:30:28 2025.
