 Gaussian 16, Revision C.01,
 Gaussian 16:  ES64L-G16RevC.01  3-Jul-2019

 -----------------------------------------
 # sp b3lyp/6-311g** Force nosymm scf=(qc)
 -----------------------------------------

 -------------------
 Title Card Required
 -------------------
 Symbolic Z-matrix:
 Charge =  0 Multiplicity = 2

                          Input orientation:
 ---------------------------------------------------------------------
 Center     Atomic      Atomic             Coordinates (Angstroms)
 Number     Number       Type             X           Y           Z
 ---------------------------------------------------------------------
      1          1           0        0.000000    0.000000    0.000000
      2          1           0       -2.200000    0.000000    0.000000
      3          9           0        1.050000    0.000000    0.000000
 ---------------------------------------------------------------------

 SCF Done:  E(UB3LYP) =  -100.959141663     a.u. after    6 cycles

 Alpha  occ. eigenvalues --  -24.63950  -1.14654  -0.50577  -0.38187  -0.38187
 Alpha  occ. eigenvalues --   -0.35752
 Alpha virt. eigenvalues --    0.01206   0.24640   0.32329   0.94040   0.94040
 Alpha virt. eigenvalues --    0.98982   1.16649   1.21745   1.21745   1.35820
 Alpha virt. eigenvalues --    1.35820   1.43604   1.83911   2.13508   2.34142

  Beta  occ. eigenvalues --  -24.63893  -1.14512  -0.50291  -0.38137  -0.38137
  Beta virt. eigenvalues --   -0.11857   0.03514   0.32216   0.35742   0.94044
  Beta virt. eigenvalues --    0.94044   0.99249   1.25911   1.35600   1.35600
  Beta virt. eigenvalues --    1.42184   1.42184   1.53786   1.84194   2.32284

 Mulliken charges and spin densities:
               1          2
     1  H    0.320538   0.002996
     2  H    0.013567   0.980555
     3  F   -0.334105   0.016448
 Sum of Mulliken charges =   0.00000   1.00000

 Dipole moment (field-independent basis, Debye):
    X=             -2.2555    Y=              0.0000    Z=             -0.0000  Tot=              2.2555
 Quadrupole moment (field-independent basis, Debye-Ang):
   XX=             -7.9902   YY=             -6.9846   ZZ=             -6.9846
   XY=              0.0000   XZ=             -0.0000   YZ=              0.0000

  Exact polarizability:      10.868       0.000       2.426      -0.000      -0.000       2.426
 Approx polarizability:      12.412       0.000       2.401      -0.000      -0.000       2.401

 ******    1 imaginary frequencies (negative Signs) ******

                      1                      2                      3
                      A                      A                      A
 Frequencies --   -119.3954              1087.2241              1087.2241
 Red. masses --      1.0517                 1.0288                 1.0288
 Frc consts  --      0.0088                 0.7165                 0.7165
 IR Inten    --      3.2268               137.7491               137.7491

                      4
                      A
 Frequencies --   2409.2029
 Red. masses --      1.0599
 Frc consts  --      3.6246
 IR Inten    --    159.5796

 - Thermochemistry -
 -------------------
 Temperature   298.150 Kelvin.  Pressure   1.00000 Atm.
 Atom     1 has atomic number  1 and mass   1.00783

 Molecular mass:    21.01405 amu.
 Principal axes and moments of inertia in atomic units:
                           1         2         3
     Eigenvalues --     0.00000  38.79093  38.79093
           X            1.00000  -0.00000   0.00000
           Y            0.00000   1.00000   0.00000
           Z            0.00000   0.00000   1.00000
 This molecule is a prolate symmetric top.
 Rotational symmetry number  1.
 Rotational temperature (Kelvin)      2.23284
 Rotational constant (GHZ):          46.524821
    1 imaginary frequencies ignored.
 Zero-point vibrational energy      27416.3 (Joules/Mol)
                                    6.55266 (Kcal/Mol)
 Vibrational temperatures:   1564.27  1564.27  3466.31
          (Kelvin)

 Zero-point correction=                           0.010442 (Hartree/Particle)
 Thermal correction to Energy=                    0.012855
 Thermal correction to Enthalpy=                  0.013800
 Thermal correction to Gibbs Free Energy=        -0.009145
 Sum of electronic and zero-point Energies=           -100.948699
 Sum of electronic and thermal Energies=              -100.946286
 Sum of electronic and thermal Enthalpies=            -100.945342
 Sum of electronic and thermal Free Energies=         -100.968286

                     E (Thermal)             CV                S
                      KCal/Mol        Cal/Mol-Kelvin    Cal/Mol-Kelvin
 Total                    8.067              5.553             48.290
 Electronic               0.000              0.000              1.377
 Translational            0.889              2.981             35.068
 Rotational               0.592              1.987             11.713
 Vibrational              6.586              0.585              0.132

 Normal termination of Gaussian 16 at Fri Aug 22 16:03:04 2025.
