 Gaussian 16, Revision C.01,
 Gaussian 16:  ES64L-G16RevC.01  3-Jul-2019

 -----------------------------------------
 # sp b3lyp/6-311g** Force nosymm scf=(qc)
 -----------------------------------------

 -------------------
 Title Card Required
 -------------------
 Symbolic Z-matrix:
 Charge =  0 Multiplicity = 2

                          Input orientation:
 ---------------------------------------------------------------------
 Center     Atomic      Atomic             Coordinates (Angstroms)
 Number     Number       Type             X           Y           Z
 ---------------------------------------------------------------------
      1          1           0        0.000000    0.000000    0.000000
      2          1           0       -1.650000    0.000000    0.000000
      3          9           0        0.850000    0.000000    0.000000
 ---------------------------------------------------------------------

 SCF Done:  E(UB3LYP) =  -100.964365009     a.u. after    6 cycles

 Alpha  occ. eigenvalues --  -24.63501  -1.20723  -0.55495  -0.39867  -0.39867
 Alpha  occ. eigenvalues --   -0.36413
 Alpha virt. eigenvalues --    0.10262   0.22279   0.41119   0.94460   0.94460
 Alpha virt. eigenvalues --    0.97761   1.18868   1.18868   1.20073   1.40806
 Alpha virt. eigenvalues --    1.40806   1.53823   2.02829   2.21271   2.57857

  Beta  occ. eigenvalues --  -24.63375  -1.20396  -0.54705  -0.39762  -0.39762
  Beta virt. eigenvalues --   -0.13233   0.12081   0.30235   0.43898   0.94531
  Beta virt. eigenvalues --    0.94531   0.98046   1.28929   1.32171   1.32171
  Beta virt. eigenvalues --    1.45573   1.45573   1.59195   2.12592   2.29882

 Mulliken charges and spin densities:
               1          2
     1  H    0.264832   0.010036
     2  H    0.019908   0.961281
     3  F   -0.284739   0.028683
 Sum of Mulliken charges =   0.00000   1.00000

 Dipole moment (field-independent basis, Debye):
    X=             -1.9751    Y=             -0.0000    Z=              0.0000  Tot=              1.9751
 Quadrupole moment (field-independent basis, Debye-Ang):
   XX=             -7.3613   YY=             -6.7361   ZZ=             -6.7361
   XY=             -0.0000   XZ=              0.0000   YZ=              0.0000

  Exact polarizability:       9.183      -0.000       2.525      -0.000       0.000       2.525
 Approx polarizability:       9.361       0.000       2.524       0.000       0.000       2.524

 ******    2 imaginary frequencies (negative Signs) ******

                      1                      2                      3
                      A                      A                      A
 Frequencies --  -1328.6294             -1328.6294               499.4543
 Red. masses --      1.0276                 1.0276                 1.0529
 Frc consts  --      1.0687                 1.0687                 0.1547
 IR Inten    --    134.4145               134.4145                 0.0085

                      4
                      A
 Frequencies --   5257.6993
 Red. masses --      1.0587
 Frc consts  --     17.2424
 IR Inten    --    193.4426

 - Thermochemistry -
 -------------------
 Temperature   298.150 Kelvin.  Pressure   1.00000 Atm.
 Atom     1 has atomic number  1 and mass   1.00783

 Molecular mass:    21.01405 amu.
 Principal axes and moments of inertia in atomic units:
                           1         2         3
     Eigenvalues --     0.00000  23.15701  23.15701
           X            1.00000  -0.00000   0.00000
           Y            0.00000   1.00000   0.00000
           Z            0.00000   0.00000   1.00000
 This molecule is a prolate symmetric top.
 Rotational symmetry number  1.
 Rotational temperature (Kelvin)      3.74029
 Rotational constant (GHZ):          77.934998
    2 imaginary frequencies ignored.
 Zero-point vibrational energy      34435.4 (Joules/Mol)
                                    8.23026 (Kcal/Mol)
 Warning -- explicit consideration of   1 degrees of freedom as
           vibrations may cause significant error
 Vibrational temperatures:    718.60  7564.66
          (Kelvin)

 Zero-point correction=                           0.013116 (Hartree/Particle)
 Thermal correction to Energy=                    0.015701
 Thermal correction to Enthalpy=                  0.016645
 Thermal correction to Gibbs Free Energy=        -0.006063
 Sum of electronic and zero-point Energies=           -100.951249
 Sum of electronic and thermal Energies=              -100.948664
 Sum of electronic and thermal Enthalpies=            -100.947720
 Sum of electronic and thermal Free Energies=         -100.970428

                     E (Thermal)             CV                S
                      KCal/Mol        Cal/Mol-Kelvin    Cal/Mol-Kelvin
 Total                    9.852              6.219             47.793
 Electronic               0.000              0.000              1.377
 Translational            0.889              2.981             35.068
 Rotational               0.592              1.987             10.688
 Vibrational              8.371              1.251              0.659
 Vibration     1          0.855              1.251              0.659

 Normal termination of Gaussian 16 at Fri Aug 22 15:53:13 2025.
