 Gaussian 16, Revision C.01,
 Gaussian 16:  ES64L-G16RevC.01  3-Jul-2019

 -----------------------------------------
 # sp b3lyp/6-311g** Force nosymm scf=(qc)
 -----------------------------------------

 -------------------
 Title Card Required
 -------------------
 Symbolic Z-matrix:
 Charge =  0 Multiplicity = 2

                          Input orientation:
 ---------------------------------------------------------------------
 Center     Atomic      Atomic             Coordinates (Angstroms)
 Number     Number       Type             X           Y           Z
 ---------------------------------------------------------------------
      1          1           0        0.000000    0.000000    0.000000
      2          1           0       -3.400000    0.000000    0.000000
      3          9           0        1.650000    0.000000    0.000000
 ---------------------------------------------------------------------

 SCF Done:  E(UB3LYP) =  -100.824990969     a.u. after   13 cycles

 Alpha  occ. eigenvalues --  -24.64061  -1.07880  -0.40787  -0.35984  -0.35984
 Alpha  occ. eigenvalues --   -0.33981
 Alpha virt. eigenvalues --   -0.17736   0.19568   0.27213   0.94093   0.94093
 Alpha virt. eigenvalues --    0.98954   1.07426   1.23510   1.23510   1.23597
 Alpha virt. eigenvalues --    1.26371   1.26371   1.70956   2.12432   2.14544

  Beta  occ. eigenvalues --  -24.65234  -1.11052  -0.43732  -0.37115  -0.37115
  Beta virt. eigenvalues --   -0.15653  -0.06088   0.25016   0.38615   0.94420
  Beta virt. eigenvalues --    0.94420   0.98385   1.06587   1.32564   1.32564
  Beta virt. eigenvalues --    1.45799   1.46230   1.46230   1.73991   2.22039

 Mulliken charges and spin densities:
               1          2
     1  H    0.312122   0.372327
     2  H    0.002466   0.997577
     3  F   -0.314588  -0.369904
 Sum of Mulliken charges =   0.00000   1.00000

 Dipole moment (field-independent basis, Debye):
    X=             -2.5725    Y=              0.0000    Z=             -0.0000  Tot=              2.5725
 Quadrupole moment (field-independent basis, Debye-Ang):
   XX=            -10.1856   YY=             -7.3856   ZZ=             -7.3856
   XY=              0.0000   XZ=             -0.0000   YZ=              0.0000

  Exact polarizability:      21.428      -0.000       2.133      -0.000      -0.000       2.133
 Approx polarizability:      36.090       0.000       2.039       0.000      -0.000       2.039

 ******    2 imaginary frequencies (negative Signs) ******

                      1                      2                      3
                      A                      A                      A
 Frequencies --  -1829.1416               -56.9463               840.3578
 Red. masses --      1.0587                 1.0529                 1.0285
 Frc consts  --      2.0870                 0.0020                 0.4280
 IR Inten    --     91.8839                 0.6686                90.9782

                      4
                      A
 Frequencies --    840.3578
 Red. masses --      1.0285
 Frc consts  --      0.4280
 IR Inten    --     90.9782

 - Thermochemistry -
 -------------------
 Temperature   298.150 Kelvin.  Pressure   1.00000 Atm.
 Atom     1 has atomic number  1 and mass   1.00783

 Molecular mass:    21.01405 amu.
 Principal axes and moments of inertia in atomic units:
                           1         2         3
     Eigenvalues --     0.00000  93.83369  93.83369
           X            1.00000  -0.00000   0.00000
           Y            0.00000   1.00000   0.00000
           Z            0.00000   0.00000   1.00000
 This molecule is a prolate symmetric top.
 Rotational symmetry number  1.
 Rotational temperature (Kelvin)      0.92306
 Rotational constant (GHZ):          19.233403
    2 imaginary frequencies ignored.
 Zero-point vibrational energy      10052.9 (Joules/Mol)
                                    2.40270 (Kcal/Mol)
 Vibrational temperatures:   1209.09  1209.09
          (Kelvin)

 Zero-point correction=                           0.003829 (Hartree/Particle)
 Thermal correction to Energy=                    0.006324
 Thermal correction to Enthalpy=                  0.007269
 Thermal correction to Gibbs Free Energy=        -0.016615
 Sum of electronic and zero-point Energies=           -100.821162
 Sum of electronic and thermal Energies=              -100.818667
 Sum of electronic and thermal Enthalpies=            -100.817722
 Sum of electronic and thermal Free Energies=         -100.841606

                     E (Thermal)             CV                S
                      KCal/Mol        Cal/Mol-Kelvin    Cal/Mol-Kelvin
 Total                    3.969              6.141             50.268
 Electronic               0.000              0.000              1.377
 Translational            0.889              2.981             35.068
 Rotational               0.592              1.987             13.469
 Vibrational              2.487              1.173              0.354

 Normal termination of Gaussian 16 at Fri Aug 22 16:35:37 2025.
