 Gaussian 16, Revision C.01,
 Gaussian 16:  ES64L-G16RevC.01  3-Jul-2019

 -----------------------------------------
 # sp b3lyp/6-311g** Force nosymm scf=(qc)
 -----------------------------------------

 -------------------
 Title Card Required
 -------------------
 Symbolic Z-matrix:
 Charge =  0 Multiplicity = 2

                          Input orientation:
 ---------------------------------------------------------------------
 Center     Atomic      Atomic             Coordinates (Angstroms)
 Number     Number       Type             X           Y           Z
 ---------------------------------------------------------------------
      1          1           0        0.000000    0.000000    0.000000
      2          1           0       -0.950000    0.000000    0.000000
      3          9           0        3.150000    0.000000    0.000000
 ---------------------------------------------------------------------

 SCF Done:  E(UB3LYP) =  -100.914562414     a.u. after    5 cycles

 Alpha  occ. eigenvalues --  -24.76188  -1.22085  -0.55312  -0.46450  -0.46450
 Alpha  occ. eigenvalues --   -0.39959
 Alpha virt. eigenvalues --    0.01214   0.20848   0.39715   0.89177   0.90943
 Alpha virt. eigenvalues --    0.90943   1.03516   1.08365   1.08365   1.41312
 Alpha virt. eigenvalues --    1.68676   1.68676   2.22042   2.37031   2.64351

  Beta  occ. eigenvalues --  -24.73044  -1.13041  -0.43297  -0.43297  -0.39943
  Beta virt. eigenvalues --   -0.26130   0.01336   0.20943   0.40041   0.92437
  Beta virt. eigenvalues --    0.92437   0.98060   1.07734   1.08392   1.08392
  Beta virt. eigenvalues --    1.41357   1.68697   1.68697   2.22123   2.37076

 Mulliken charges and spin densities:
               1          2
     1  H   -0.008345  -0.002481
     2  H    0.007736   0.005825
     3  F    0.000609   0.996656
 Sum of Mulliken charges =   0.00000   1.00000

 Dipole moment (field-independent basis, Debye):
    X=             -0.0335    Y=             -0.0000    Z=             -0.0000  Tot=              0.0335
 Quadrupole moment (field-independent basis, Debye-Ang):
   XX=             -5.5020   YY=             -7.2110   ZZ=             -7.2110
   XY=             -0.0000   XZ=             -0.0000   YZ=              0.0000

  Exact polarizability:      13.338      -0.000       2.045       0.000       0.000       2.045
 Approx polarizability:      16.260       0.000       2.103      -0.000       0.000       2.103

 ******    1 imaginary frequencies (negative Signs) ******

                      1                      2                      3
                      A                      A                      A
 Frequencies --    -49.9499              1510.1081              1510.1081
 Red. masses --      1.1085                 1.0095                 1.0095
 Frc consts  --      0.0016                 1.3564                 1.3564
 IR Inten    --      0.2171                 0.0677                 0.0677

                      4
                      A
 Frequencies --   2194.2067
 Red. masses --      1.0078
 Frc consts  --      2.8588
 IR Inten    --      3.0813

 - Thermochemistry -
 -------------------
 Temperature   298.150 Kelvin.  Pressure   1.00000 Atm.
 Atom     1 has atomic number  1 and mass   1.00783

 Molecular mass:    21.01405 amu.
 Principal axes and moments of inertia in atomic units:
                           1         2         3
     Eigenvalues --     0.00000  87.13784  87.13784
           X            1.00000  -0.00000   0.00000
           Y            0.00000   1.00000   0.00000
           Z            0.00000   0.00000   1.00000
 This molecule is a prolate symmetric top.
 Rotational symmetry number  1.
 Rotational temperature (Kelvin)      0.99399
 Rotational constant (GHZ):          20.711336
    1 imaginary frequencies ignored.
 Zero-point vibrational energy      31189.2 (Joules/Mol)
                                    7.45439 (Kcal/Mol)
 Vibrational temperatures:   2172.71  2172.71  3156.97
          (Kelvin)

 Zero-point correction=                           0.011879 (Hartree/Particle)
 Thermal correction to Energy=                    0.014249
 Thermal correction to Enthalpy=                  0.015194
 Thermal correction to Gibbs Free Energy=        -0.008463
 Sum of electronic and zero-point Energies=           -100.902683
 Sum of electronic and thermal Energies=              -100.900313
 Sum of electronic and thermal Enthalpies=            -100.899369
 Sum of electronic and thermal Free Energies=         -100.923026

                     E (Thermal)             CV                S
                      KCal/Mol        Cal/Mol-Kelvin    Cal/Mol-Kelvin
 Total                    8.942              5.118             49.790
 Electronic               0.000              0.000              1.377
 Translational            0.889              2.981             35.068
 Rotational               0.592              1.987             13.321
 Vibrational              7.460              0.150              0.023

 Normal termination of Gaussian 16 at Fri Aug 22 20:01:54 2025.
