 Gaussian 16, Revision C.01,
 Gaussian 16:  ES64L-G16RevC.01  3-Jul-2019

 -----------------------------------------
 # sp b3lyp/6-311g** Force nosymm scf=(qc)
 -----------------------------------------

 -------------------
 Title Card Required
 -------------------
 Symbolic Z-matrix:
 Charge =  0 Multiplicity = 2

                          Input orientation:
 ---------------------------------------------------------------------
 Center     Atomic      Atomic             Coordinates (Angstroms)
 Number     Number       Type             X           Y           Z
 ---------------------------------------------------------------------
      1          1           0        0.000000    0.000000    0.000000
      2          1           0       -0.800000    0.000000    0.000000
      3          9           0        2.600000    0.000000    0.000000
 ---------------------------------------------------------------------

 SCF Done:  E(UB3LYP) =  -100.932707910     a.u. after   54 cycles

 Alpha  occ. eigenvalues --  -24.76900  -1.22677  -0.55854  -0.47289  -0.47000
 Alpha  occ. eigenvalues --   -0.41714
 Alpha virt. eigenvalues --    0.05641   0.20703   0.46221   0.85635   0.90499
 Alpha virt. eigenvalues --    0.93466   1.08588   1.08606   1.10447   1.52610
 Alpha virt. eigenvalues --    1.79251   1.79269   2.06223   2.39698   3.05670

  Beta  occ. eigenvalues --  -24.73736  -1.13584  -0.44350  -0.43827  -0.41476
  Beta virt. eigenvalues --   -0.26464   0.05715   0.20752   0.46331   0.91995
  Beta virt. eigenvalues --    0.95075   0.95381   1.08597   1.08605   1.14010
  Beta virt. eigenvalues --    1.52613   1.79250   1.79266   2.06235   2.39707

 Mulliken charges and spin densities:
               1          2
     1  H   -0.006879  -0.001621
     2  H   -0.007456  -0.000488
     3  F    0.014334   1.002109
 Sum of Mulliken charges =   0.00000   1.00000

 Dipole moment (field-independent basis, Debye):
    X=              0.1485    Y=             -0.0000    Z=              0.0000  Tot=              0.1485
 Quadrupole moment (field-independent basis, Debye-Ang):
   XX=             -6.0435   YY=             -6.6005   ZZ=             -6.5997
   XY=             -0.0000   XZ=              0.0000   YZ=             -0.4315

  Exact polarizability:       9.615      -0.000       2.229       0.000      -0.224       2.229
 Approx polarizability:      11.122      -0.000       2.364       0.000      -0.284       2.364

                      1                      2                      3
                      A                      A                      A
 Frequencies --    156.4751              1080.7023              1083.8345
 Red. masses --      1.1085                 1.0096                 1.0096
 Frc consts  --      0.0160                 0.6947                 0.6988
 IR Inten    --      0.6732                 0.0050                 0.0088

                      4
                      A
 Frequencies --   3696.2559
 Red. masses --      1.0078
 Frc consts  --      8.1126
 IR Inten    --      2.6860

 - Thermochemistry -
 -------------------
 Temperature   298.150 Kelvin.  Pressure   1.00000 Atm.
 Atom     1 has atomic number  1 and mass   1.00783

 Molecular mass:    21.01405 amu.
 Principal axes and moments of inertia in atomic units:
                           1         2         3
     Eigenvalues --     0.00000  59.71999  59.71999
           X            1.00000  -0.00000   0.00000
           Y            0.00000   1.00000   0.00000
           Z            0.00000   0.00000   1.00000
 This molecule is a prolate symmetric top.
 Rotational symmetry number  1.
 Rotational temperature (Kelvin)      1.45033
 Rotational constant (GHZ):          30.220053
 Zero-point vibrational energy      35991.3 (Joules/Mol)
                                    8.60212 (Kcal/Mol)
 Warning -- explicit consideration of   1 degrees of freedom as
           vibrations may cause significant error
 Vibrational temperatures:    225.13  1554.89  1559.40  5318.09
          (Kelvin)

 Zero-point correction=                           0.013708 (Hartree/Particle)
 Thermal correction to Energy=                    0.016754
 Thermal correction to Enthalpy=                  0.017699
 Thermal correction to Gibbs Free Energy=        -0.006886
 Sum of electronic and zero-point Energies=           -100.919000
 Sum of electronic and thermal Energies=              -100.915953
 Sum of electronic and thermal Enthalpies=            -100.915009
 Sum of electronic and thermal Free Energies=         -100.939594

                     E (Thermal)             CV                S
                      KCal/Mol        Cal/Mol-Kelvin    Cal/Mol-Kelvin
 Total                   10.514              7.454             51.742
 Electronic               0.000              0.000              1.377
 Translational            0.889              2.981             35.068
 Rotational               0.592              1.987             12.571
 Vibrational              9.032              2.486              2.726
 Vibration     1          0.620              1.895              2.592

 Normal termination of Gaussian 16 at Fri Aug 22 18:00:02 2025.
