 Gaussian 16, Revision C.01,
 Gaussian 16:  ES64L-G16RevC.01  3-Jul-2019

 -----------------------------------------
 # sp b3lyp/6-311g** Force nosymm scf=(qc)
 -----------------------------------------

 -------------------
 Title Card Required
 -------------------
 Symbolic Z-matrix:
 Charge =  0 Multiplicity = 2

                          Input orientation:
 ---------------------------------------------------------------------
 Center     Atomic      Atomic             Coordinates (Angstroms)
 Number     Number       Type             X           Y           Z
 ---------------------------------------------------------------------
      1          1           0        0.000000    0.000000    0.000000
      2          1           0       -3.050000    0.000000    0.000000
      3          9           0        0.650000    0.000000    0.000000
 ---------------------------------------------------------------------

 SCF Done:  E(UB3LYP) =  -100.800757032     a.u. after    6 cycles

 Alpha  occ. eigenvalues --  -24.62927  -1.31302  -0.59797  -0.42346  -0.42346
 Alpha  occ. eigenvalues --   -0.33735
 Alpha virt. eigenvalues --    0.07254   0.25469   0.55466   0.92893   0.92893
 Alpha virt. eigenvalues --    0.94691   1.22613   1.23788   1.23788   1.35712
 Alpha virt. eigenvalues --    1.46924   1.46924   1.96231   2.15007   3.09616

  Beta  occ. eigenvalues --  -24.62925  -1.31297  -0.59793  -0.42345  -0.42345
  Beta virt. eigenvalues --   -0.05903   0.08198   0.39356   0.55613   0.92892
  Beta virt. eigenvalues --    0.92892   0.94692   1.32621   1.46925   1.46925
  Beta virt. eigenvalues --    1.50939   1.50939   1.52044   1.96162   2.44743

 Mulliken charges and spin densities:
               1          2
     1  H    0.253511   0.001172
     2  H    0.001718   0.997718
     3  F   -0.255229   0.001110
 Sum of Mulliken charges =   0.00000   1.00000

 Dipole moment (field-independent basis, Debye):
    X=             -1.5299    Y=              0.0000    Z=             -0.0000  Tot=              1.5299
 Quadrupole moment (field-independent basis, Debye-Ang):
   XX=             -7.0660   YY=             -6.6073   ZZ=             -6.6073
   XY=             -0.0000   XZ=             -0.0000   YZ=             -0.0000

  Exact polarizability:       4.192      -0.000       2.453      -0.000      -0.000       2.453
 Approx polarizability:       4.407       0.000       2.435      -0.000      -0.000       2.435

 ******    3 imaginary frequencies (negative Signs) ******

                      1                      2                      3
                      A                      A                      A
 Frequencies --  -4584.6741             -4584.6741               -24.3850
 Red. masses --      1.0411                 1.0411                 1.0532
 Frc consts  --     12.8936                12.8936                 0.0004
 IR Inten    --    221.6581               221.6581                 0.0808

                      4
                      A
 Frequencies --  10873.5108
 Red. masses --      1.0583
 Frc consts  --     73.7232
 IR Inten    --    107.0255

 - Thermochemistry -
 -------------------
 Temperature   298.150 Kelvin.  Pressure   1.00000 Atm.
 Atom     1 has atomic number  1 and mass   1.00783

 Molecular mass:    21.01405 amu.
 Principal axes and moments of inertia in atomic units:
                           1         2         3
     Eigenvalues --     0.00000  47.52485  47.52485
           X            1.00000  -0.00000   0.00000
           Y            0.00000   1.00000   0.00000
           Z            0.00000   0.00000   1.00000
 This molecule is a prolate symmetric top.
 Rotational symmetry number  1.
 Rotational temperature (Kelvin)      1.82250
 Rotational constant (GHZ):          37.974682
    3 imaginary frequencies ignored.
 Zero-point vibrational energy      65038.0 (Joules/Mol)
                                   15.54446 (Kcal/Mol)
 Vibrational temperatures:  15644.56
          (Kelvin)

 Zero-point correction=                           0.024772 (Hartree/Particle)
 Thermal correction to Energy=                    0.027132
 Thermal correction to Enthalpy=                  0.028076
 Thermal correction to Gibbs Free Energy=         0.005003
 Sum of electronic and zero-point Energies=           -100.775985
 Sum of electronic and thermal Energies=              -100.773625
 Sum of electronic and thermal Enthalpies=            -100.772681
 Sum of electronic and thermal Free Energies=         -100.795754

                     E (Thermal)             CV                S
                      KCal/Mol        Cal/Mol-Kelvin    Cal/Mol-Kelvin
 Total                   17.026              4.968             48.562
 Electronic               0.000              0.000              1.377
 Translational            0.889              2.981             35.068
 Rotational               0.592              1.987             12.117
 Vibrational             15.544              0.000              0.000

 Normal termination of Gaussian 16 at Fri Aug 22 15:44:45 2025.
