 Gaussian 16, Revision C.01,
 Gaussian 16:  ES64L-G16RevC.01  3-Jul-2019

 -----------------------------------------
 # sp b3lyp/6-311g** Force nosymm scf=(qc)
 -----------------------------------------

 -------------------
 Title Card Required
 -------------------
 Symbolic Z-matrix:
 Charge =  0 Multiplicity = 2

                          Input orientation:
 ---------------------------------------------------------------------
 Center     Atomic      Atomic             Coordinates (Angstroms)
 Number     Number       Type             X           Y           Z
 ---------------------------------------------------------------------
      1          1           0        0.000000    0.000000    0.000000
      2          1           0       -3.750000    0.000000    0.000000
      3          9           0        3.950000    0.000000    0.000000
 ---------------------------------------------------------------------

 SCF Done:  E(UB3LYP) =  -100.758489861     a.u. after   34 cycles

 Alpha  occ. eigenvalues --  -24.75853  -1.21782  -0.54978  -0.46160  -0.46160
 Alpha  occ. eigenvalues --   -0.32241
 Alpha virt. eigenvalues --   -0.06288   0.24230   0.37845   0.86621   0.91188
 Alpha virt. eigenvalues --    0.91188   1.01119   1.25256   1.25256   1.25315
 Alpha virt. eigenvalues --    1.46023   1.46214   1.46214   2.14792   2.41862

  Beta  occ. eigenvalues --  -24.72709  -1.12742  -0.43008  -0.43008  -0.32455
  Beta virt. eigenvalues --   -0.25717  -0.06075   0.24066   0.38174   0.92686
  Beta virt. eigenvalues --    0.92686   0.95985   1.05239   1.25025   1.25025
  Beta virt. eigenvalues --    1.25070   1.46374   1.46539   1.46539   2.14774

 Mulliken charges and spin densities:
               1          2
     1  H    0.002851  -0.995631
     2  H    0.000037   0.998838
     3  F   -0.002888   0.996793
 Sum of Mulliken charges =  -0.00000   1.00000

 Dipole moment (field-independent basis, Debye):
    X=             -0.0598    Y=              0.0000    Z=              0.0000  Tot=              0.0598
 Quadrupole moment (field-independent basis, Debye-Ang):
   XX=             -6.9461   YY=             -7.6208   ZZ=             -7.6208
   XY=              0.0000   XZ=              0.0000   YZ=              0.0000

  Exact polarizability:      11.360       0.000       2.034       0.000       0.000       2.034
 Approx polarizability:       8.436       0.000       1.937       0.000      -0.000       1.937

 ******    2 imaginary frequencies (negative Signs) ******

                      1                      2                      3
                      A                      A                      A
 Frequencies --   -157.9484               -66.0352                51.3865
 Red. masses --      1.0166                 1.0981                 1.0173
 Frc consts  --      0.0149                 0.0028                 0.0016
 IR Inten    --      1.1771                 0.3485                 0.0079

                      4
                      A
 Frequencies --     51.3865
 Red. masses --      1.0173
 Frc consts  --      0.0016
 IR Inten    --      0.0079

 - Thermochemistry -
 -------------------
 Temperature   298.150 Kelvin.  Pressure   1.00000 Atm.
 Atom     1 has atomic number  1 and mass   1.00783

 Molecular mass:    21.01405 amu.
 Principal axes and moments of inertia in atomic units:
                           1         2         3
     Eigenvalues --     0.00000 246.11211 246.11211
           X            1.00000  -0.00000   0.00000
           Y            0.00000   1.00000   0.00000
           Z            0.00000   0.00000   1.00000
 This molecule is a prolate symmetric top.
 Rotational symmetry number  1.
 Rotational temperature (Kelvin)      0.35193
 Rotational constant (GHZ):           7.333005
    2 imaginary frequencies ignored.
 Zero-point vibrational energy        614.7 (Joules/Mol)
                                    0.14692 (Kcal/Mol)
 Warning -- explicit consideration of   2 degrees of freedom as
           vibrations may cause significant error
 Vibrational temperatures:     73.93    73.93
          (Kelvin)

 Zero-point correction=                           0.000234 (Hartree/Particle)
 Thermal correction to Energy=                    0.004258
 Thermal correction to Enthalpy=                  0.005203
 Thermal correction to Gibbs Free Energy=        -0.023950
 Sum of electronic and zero-point Energies=           -100.758256
 Sum of electronic and thermal Energies=              -100.754231
 Sum of electronic and thermal Enthalpies=            -100.753287
 Sum of electronic and thermal Free Energies=         -100.782440

                     E (Thermal)             CV                S
                      KCal/Mol        Cal/Mol-Kelvin    Cal/Mol-Kelvin
 Total                    2.672              8.922             61.357
 Electronic               0.000              0.000              1.377
 Translational            0.889              2.981             35.068
 Rotational               0.592              1.987             15.385
 Vibrational              1.191              3.954              9.527
 Vibration     1          0.596              1.977              4.763
 Vibration     2          0.596              1.977              4.763

 Normal termination of Gaussian 16 at Sat Aug 23 01:42:16 2025.
