 Gaussian 16, Revision C.01,
 Gaussian 16:  ES64L-G16RevC.01  3-Jul-2019

 -----------------------------------------
 # sp b3lyp/6-311g** Force nosymm scf=(qc)
 -----------------------------------------

 -------------------
 Title Card Required
 -------------------
 Symbolic Z-matrix:
 Charge =  0 Multiplicity = 2

                          Input orientation:
 ---------------------------------------------------------------------
 Center     Atomic      Atomic             Coordinates (Angstroms)
 Number     Number       Type             X           Y           Z
 ---------------------------------------------------------------------
      1          1           0        0.000000    0.000000    0.000000
      2          1           0       -3.800000    0.000000    0.000000
      3          9           0        1.650000    0.000000    0.000000
 ---------------------------------------------------------------------

 SCF Done:  E(UB3LYP) =  -100.824966664     a.u. after   14 cycles

 Alpha  occ. eigenvalues --  -24.64115  -1.07914  -0.40800  -0.36032  -0.36032
 Alpha  occ. eigenvalues --   -0.33639
 Alpha virt. eigenvalues --   -0.17774   0.19552   0.26688   0.94051   0.94051
 Alpha virt. eigenvalues --    0.98838   1.07327   1.23837   1.23862   1.23862
 Alpha virt. eigenvalues --    1.26326   1.26326   1.70728   2.11233   2.15387

  Beta  occ. eigenvalues --  -24.65304  -1.11132  -0.43820  -0.37179  -0.37179
  Beta virt. eigenvalues --   -0.15522  -0.05594   0.24731   0.38793   0.94378
  Beta virt. eigenvalues --    0.94378   0.98268   1.06402   1.32585   1.32585
  Beta virt. eigenvalues --    1.46406   1.46705   1.46705   1.73814   2.21684

 Mulliken charges and spin densities:
               1          2
     1  H    0.312587   0.376083
     2  H    0.000875   0.999137
     3  F   -0.313463  -0.375219
 Sum of Mulliken charges =   0.00000   1.00000

 Dipole moment (field-independent basis, Debye):
    X=             -2.5383    Y=             -0.0000    Z=             -0.0000  Tot=              2.5383
 Quadrupole moment (field-independent basis, Debye-Ang):
   XX=            -10.2602   YY=             -7.3857   ZZ=             -7.3857
   XY=             -0.0000   XZ=              0.0000   YZ=             -0.0000

  Exact polarizability:      20.012      -0.000       2.133      -0.000       0.000       2.133
 Approx polarizability:      34.715       0.000       2.038       0.000       0.000       2.038

 ******    2 imaginary frequencies (negative Signs) ******

                      1                      2                      3
                      A                      A                      A
 Frequencies --  -1828.1980               -30.8711               844.6583
 Red. masses --      1.0585                 1.0531                 1.0303
 Frc consts  --      2.0844                 0.0006                 0.4331
 IR Inten    --     98.6267                 0.1143                92.9196

                      4
                      A
 Frequencies --    844.6583
 Red. masses --      1.0303
 Frc consts  --      0.4331
 IR Inten    --     92.9196

 - Thermochemistry -
 -------------------
 Temperature   298.150 Kelvin.  Pressure   1.00000 Atm.
 Atom     1 has atomic number  1 and mass   1.00783

 Molecular mass:    21.01405 amu.
 Principal axes and moments of inertia in atomic units:
                           1         2         3
     Eigenvalues --     0.00000 107.99674 107.99674
           X            1.00000  -0.00000   0.00000
           Y            0.00000   1.00000   0.00000
           Z            0.00000   0.00000   1.00000
 This molecule is a prolate symmetric top.
 Rotational symmetry number  1.
 Rotational temperature (Kelvin)      0.80200
 Rotational constant (GHZ):          16.711072
    2 imaginary frequencies ignored.
 Zero-point vibrational energy      10104.4 (Joules/Mol)
                                    2.41500 (Kcal/Mol)
 Vibrational temperatures:   1215.27  1215.27
          (Kelvin)

 Zero-point correction=                           0.003849 (Hartree/Particle)
 Thermal correction to Energy=                    0.006342
 Thermal correction to Enthalpy=                  0.007286
 Thermal correction to Gibbs Free Energy=        -0.016728
 Sum of electronic and zero-point Energies=           -100.821118
 Sum of electronic and thermal Energies=              -100.818625
 Sum of electronic and thermal Enthalpies=            -100.817681
 Sum of electronic and thermal Free Energies=         -100.841694

                     E (Thermal)             CV                S
                      KCal/Mol        Cal/Mol-Kelvin    Cal/Mol-Kelvin
 Total                    3.980              6.128             50.541
 Electronic               0.000              0.000              1.377
 Translational            0.889              2.981             35.068
 Rotational               0.592              1.987             13.748
 Vibrational              2.498              1.160              0.348

 Normal termination of Gaussian 16 at Fri Aug 22 16:35:55 2025.
