 Gaussian 16, Revision C.01,
 Gaussian 16:  ES64L-G16RevC.01  3-Jul-2019

 -----------------------------------------
 # sp b3lyp/6-311g** Force nosymm scf=(qc)
 -----------------------------------------

 -------------------
 Title Card Required
 -------------------
 Symbolic Z-matrix:
 Charge =  0 Multiplicity = 2

                          Input orientation:
 ---------------------------------------------------------------------
 Center     Atomic      Atomic             Coordinates (Angstroms)
 Number     Number       Type             X           Y           Z
 ---------------------------------------------------------------------
      1          1           0        0.000000    0.000000    0.000000
      2          1           0       -3.200000    0.000000    0.000000
      3          9           0        0.600000    0.000000    0.000000
 ---------------------------------------------------------------------

 SCF Done:  E(UB3LYP) =  -100.687958650     a.u. after    6 cycles

 Alpha  occ. eigenvalues --  -24.62726  -1.34720  -0.61022  -0.42974  -0.42974
 Alpha  occ. eigenvalues --   -0.33549
 Alpha virt. eigenvalues --    0.07532   0.25372   0.58085   0.92130   0.92130
 Alpha virt. eigenvalues --    0.93150   1.23261   1.23968   1.23968   1.35887
 Alpha virt. eigenvalues --    1.50273   1.50273   1.95572   2.15095   3.36533

  Beta  occ. eigenvalues --  -24.62725  -1.34717  -0.61021  -0.42973  -0.42973
  Beta virt. eigenvalues --   -0.05557   0.08298   0.39478   0.58186   0.92128
  Beta virt. eigenvalues --    0.92128   0.93150   1.33906   1.50275   1.50275
  Beta virt. eigenvalues --    1.50654   1.50654   1.52076   1.95508   2.44984

 Mulliken charges and spin densities:
               1          2
     1  H    0.237208   0.000863
     2  H    0.001294   0.998363
     3  F   -0.238502   0.000774
 Sum of Mulliken charges =   0.00000   1.00000

 Dipole moment (field-independent basis, Debye):
    X=             -1.4493    Y=             -0.0000    Z=              0.0000  Tot=              1.4493
 Quadrupole moment (field-independent basis, Debye-Ang):
   XX=             -6.9302   YY=             -6.5518   ZZ=             -6.5518
   XY=             -0.0000   XZ=              0.0000   YZ=             -0.0000

  Exact polarizability:       3.735      -0.000       2.443      -0.000       0.000       2.443
 Approx polarizability:       3.925       0.000       2.423       0.000       0.000       2.423

 ******    3 imaginary frequencies (negative Signs) ******

                      1                      2                      3
                      A                      A                      A
 Frequencies --  -5875.0009             -5875.0009               -30.9320
 Red. masses --      1.0428                 1.0428                 1.0532
 Frc consts  --     21.2061                21.2061                 0.0006
 IR Inten    --    237.7200               237.7200                 0.0534

                      4
                      A
 Frequencies --  13070.6863
 Red. masses --      1.0583
 Frc consts  --    106.5272
 IR Inten    --     99.7406

 - Thermochemistry -
 -------------------
 Temperature   298.150 Kelvin.  Pressure   1.00000 Atm.
 Atom     1 has atomic number  1 and mass   1.00783

 Molecular mass:    21.01405 amu.
 Principal axes and moments of inertia in atomic units:
                           1         2         3
     Eigenvalues --     0.00000  49.92366  49.92366
           X            1.00000  -0.00000   0.00000
           Y            0.00000   1.00000   0.00000
           Z            0.00000   0.00000   1.00000
 This molecule is a prolate symmetric top.
 Rotational symmetry number  1.
 Rotational temperature (Kelvin)      1.73493
 Rotational constant (GHZ):          36.150020
    3 imaginary frequencies ignored.
 Zero-point vibrational energy      78180.1 (Joules/Mol)
                                   18.68548 (Kcal/Mol)
 Vibrational temperatures:  18805.80
          (Kelvin)

 Zero-point correction=                           0.029777 (Hartree/Particle)
 Thermal correction to Energy=                    0.032138
 Thermal correction to Enthalpy=                  0.033082
 Thermal correction to Gibbs Free Energy=         0.009962
 Sum of electronic and zero-point Energies=           -100.658181
 Sum of electronic and thermal Energies=              -100.655821
 Sum of electronic and thermal Enthalpies=            -100.654877
 Sum of electronic and thermal Free Energies=         -100.677997

                     E (Thermal)             CV                S
                      KCal/Mol        Cal/Mol-Kelvin    Cal/Mol-Kelvin
 Total                   20.167              4.968             48.660
 Electronic               0.000              0.000              1.377
 Translational            0.889              2.981             35.068
 Rotational               0.592              1.987             12.215
 Vibrational             18.685              0.000              0.000

 Normal termination of Gaussian 16 at Fri Aug 22 15:42:29 2025.
