 Gaussian 16, Revision C.01,
 Gaussian 16:  ES64L-G16RevC.01  3-Jul-2019

 -----------------------------------------
 # sp b3lyp/6-311g** Force nosymm scf=(qc)
 -----------------------------------------

 -------------------
 Title Card Required
 -------------------
 Symbolic Z-matrix:
 Charge =  0 Multiplicity = 2

                          Input orientation:
 ---------------------------------------------------------------------
 Center     Atomic      Atomic             Coordinates (Angstroms)
 Number     Number       Type             X           Y           Z
 ---------------------------------------------------------------------
      1          1           0        0.000000    0.000000    0.000000
      2          1           0       -2.350000    0.000000    0.000000
      3          9           0        2.450000    0.000000    0.000000
 ---------------------------------------------------------------------

 SCF Done:  E(UB3LYP) =  -100.774116776     a.u. after   23 cycles

 Alpha  occ. eigenvalues --  -24.71441  -1.17664  -0.50535  -0.42447  -0.42447
 Alpha  occ. eigenvalues --   -0.34170
 Alpha virt. eigenvalues --   -0.12429   0.24844   0.32764   0.89972   0.93793
 Alpha virt. eigenvalues --    0.93793   1.06623   1.23557   1.23557   1.26923
 Alpha virt. eigenvalues --    1.36814   1.36814   1.43627   2.13712   2.32578

  Beta  occ. eigenvalues --  -24.68627  -1.09661  -0.39644  -0.39644  -0.35460
  Beta virt. eigenvalues --   -0.23209  -0.10272   0.26105   0.33973   0.95135
  Beta virt. eigenvalues --    0.95135   0.96546   1.09414   1.22337   1.22337
  Beta virt. eigenvalues --    1.31522   1.40276   1.40276   1.43263   2.13604

 Mulliken charges and spin densities:
               1          2
     1  H    0.079795  -0.843624
     2  H    0.016259   0.954705
     3  F   -0.096054   0.888919
 Sum of Mulliken charges =  -0.00000   1.00000

 Dipole moment (field-independent basis, Debye):
    X=             -1.3779    Y=             -0.0000    Z=             -0.0000  Tot=              1.3779
 Quadrupole moment (field-independent basis, Debye-Ang):
   XX=             -8.7423   YY=             -7.6173   ZZ=             -7.6173
   XY=              0.0000   XZ=              0.0000   YZ=             -0.0000

  Exact polarizability:      47.630       0.000       2.015       0.000      -0.000       2.015
 Approx polarizability:      50.601       0.000       1.919       0.000       0.000       1.919

 ******    2 imaginary frequencies (negative Signs) ******

                      1                      2                      3
                      A                      A                      A
 Frequencies --   -948.9269              -379.5975               378.0378
 Red. masses --      1.0161                 1.0987                 1.0174
 Frc consts  --      0.5391                 0.0933                 0.0857
 IR Inten    --     50.7310                35.1139                 4.8665

                      4
                      A
 Frequencies --    378.0379
 Red. masses --      1.0174
 Frc consts  --      0.0857
 IR Inten    --      4.8665

 - Thermochemistry -
 -------------------
 Temperature   298.150 Kelvin.  Pressure   1.00000 Atm.
 Atom     1 has atomic number  1 and mass   1.00783

 Molecular mass:    21.01405 amu.
 Principal axes and moments of inertia in atomic units:
                           1         2         3
     Eigenvalues --     0.00000  95.45155  95.45155
           X            1.00000  -0.00000   0.00000
           Y            0.00000   1.00000   0.00000
           Z            0.00000   0.00000   1.00000
 This molecule is a prolate symmetric top.
 Rotational symmetry number  1.
 Rotational temperature (Kelvin)      0.90741
 Rotational constant (GHZ):          18.907405
    2 imaginary frequencies ignored.
 Zero-point vibrational energy       4522.3 (Joules/Mol)
                                    1.08086 (Kcal/Mol)
 Warning -- explicit consideration of   2 degrees of freedom as
           vibrations may cause significant error
 Vibrational temperatures:    543.91   543.91
          (Kelvin)

 Zero-point correction=                           0.001722 (Hartree/Particle)
 Thermal correction to Energy=                    0.004746
 Thermal correction to Enthalpy=                  0.005690
 Thermal correction to Gibbs Free Energy=        -0.019037
 Sum of electronic and zero-point Energies=           -100.772394
 Sum of electronic and thermal Energies=              -100.769371
 Sum of electronic and thermal Enthalpies=            -100.768427
 Sum of electronic and thermal Free Energies=         -100.793154

                     E (Thermal)             CV                S
                      KCal/Mol        Cal/Mol-Kelvin    Cal/Mol-Kelvin
 Total                    2.978              8.002             52.042
 Electronic               0.000              0.000              1.377
 Translational            0.889              2.981             35.068
 Rotational               0.592              1.987             13.503
 Vibrational              1.497              3.034              2.094
 Vibration     1          0.748              1.517              1.047
 Vibration     2          0.748              1.517              1.047

 Normal termination of Gaussian 16 at Fri Aug 22 17:38:40 2025.
