 Gaussian 16, Revision C.01,
 Gaussian 16:  ES64L-G16RevC.01  3-Jul-2019

 -----------------------------------------
 # sp b3lyp/6-311g** Force nosymm scf=(qc)
 -----------------------------------------

 -------------------
 Title Card Required
 -------------------
 Symbolic Z-matrix:
 Charge =  0 Multiplicity = 2

                          Input orientation:
 ---------------------------------------------------------------------
 Center     Atomic      Atomic             Coordinates (Angstroms)
 Number     Number       Type             X           Y           Z
 ---------------------------------------------------------------------
      1          1           0        0.000000    0.000000    0.000000
      2          1           0       -3.400000    0.000000    0.000000
      3          9           0        0.500000    0.000000    0.000000
 ---------------------------------------------------------------------

 SCF Done:  E(UB3LYP) =  -100.268987052     a.u. after    6 cycles

 Alpha  occ. eigenvalues --  -24.63030  -1.42351  -0.63506  -0.44333  -0.44333
 Alpha  occ. eigenvalues --   -0.33315
 Alpha virt. eigenvalues --    0.08074   0.25216   0.62122   0.88994   0.90153
 Alpha virt. eigenvalues --    0.90153   1.23852   1.24196   1.24196   1.37636
 Alpha virt. eigenvalues --    1.58518   1.58518   2.00204   2.15201   3.76633

  Beta  occ. eigenvalues --  -24.63029  -1.42349  -0.63506  -0.44333  -0.44333
  Beta virt. eigenvalues --   -0.05257   0.08635   0.39497   0.62158   0.88991
  Beta virt. eigenvalues --    0.90151   0.90151   1.36460   1.50370   1.50370
  Beta virt. eigenvalues --    1.51089   1.58520   1.58520   2.00183   2.45257

 Mulliken charges and spin densities:
               1          2
     1  H    0.125875   0.000523
     2  H    0.000902   0.998961
     3  F   -0.126777   0.000517
 Sum of Mulliken charges =   0.00000   1.00000

 Dipole moment (field-independent basis, Debye):
    X=             -1.3039    Y=             -0.0000    Z=              0.0000  Tot=              1.3039
 Quadrupole moment (field-independent basis, Debye-Ang):
   XX=             -6.6369   YY=             -6.4388   ZZ=             -6.4388
   XY=             -0.0000   XZ=              0.0000   YZ=             -0.0000

  Exact polarizability:       3.119      -0.000       2.415      -0.000       0.000       2.415
 Approx polarizability:       3.266       0.000       2.392       0.000       0.000       2.392

 ******    3 imaginary frequencies (negative Signs) ******

                      1                      2                      3
                      A                      A                      A
 Frequencies --  -9593.9398             -9593.9398               -27.2350
 Red. masses --      1.0456                 1.0456                 1.0532
 Frc consts  --     56.7035                56.7035                 0.0005
 IR Inten    --    282.7521               282.7521                 0.0295

                      4
                      A
 Frequencies --  19159.3512
 Red. masses --      1.0583
 Frc consts  --    228.8890
 IR Inten    --     77.4318

 - Thermochemistry -
 -------------------
 Temperature   298.150 Kelvin.  Pressure   1.00000 Atm.
 Atom     1 has atomic number  1 and mass   1.00783

 Molecular mass:    21.01405 amu.
 Principal axes and moments of inertia in atomic units:
                           1         2         3
     Eigenvalues --     0.00000  52.29900  52.29900
           X            1.00000  -0.00000   0.00000
           Y            0.00000   1.00000   0.00000
           Z            0.00000   0.00000   1.00000
 This molecule is a prolate symmetric top.
 Rotational symmetry number  1.
 Rotational temperature (Kelvin)      1.65613
 Rotational constant (GHZ):          34.508138
    3 imaginary frequencies ignored.
 Zero-point vibrational energy     114598.4 (Joules/Mol)
                                   27.38967 (Kcal/Mol)
 Vibrational temperatures:  27566.03
          (Kelvin)

 Zero-point correction=                           0.043648 (Hartree/Particle)
 Thermal correction to Energy=                    0.046009
 Thermal correction to Enthalpy=                  0.046953
 Thermal correction to Gibbs Free Energy=         0.023789
 Sum of electronic and zero-point Energies=           -100.225339
 Sum of electronic and thermal Energies=              -100.222978
 Sum of electronic and thermal Enthalpies=            -100.222034
 Sum of electronic and thermal Free Energies=         -100.245198

                     E (Thermal)             CV                S
                      KCal/Mol        Cal/Mol-Kelvin    Cal/Mol-Kelvin
 Total                   28.871              4.968             48.752
 Electronic               0.000              0.000              1.377
 Translational            0.889              2.981             35.068
 Rotational               0.592              1.987             12.307
 Vibrational             27.390              0.000              0.000

 Normal termination of Gaussian 16 at Fri Aug 22 15:37:51 2025.
