 Gaussian 16, Revision C.01,
 Gaussian 16:  ES64L-G16RevC.01  3-Jul-2019

 -----------------------------------------
 # sp b3lyp/6-311g** Force nosymm scf=(qc)
 -----------------------------------------

 -------------------
 Title Card Required
 -------------------
 Symbolic Z-matrix:
 Charge =  0 Multiplicity = 2

                          Input orientation:
 ---------------------------------------------------------------------
 Center     Atomic      Atomic             Coordinates (Angstroms)
 Number     Number       Type             X           Y           Z
 ---------------------------------------------------------------------
      1          1           0        0.000000    0.000000    0.000000
      2          1           0       -0.950000    0.000000    0.000000
      3          9           0        2.950000    0.000000    0.000000
 ---------------------------------------------------------------------

 SCF Done:  E(UB3LYP) =  -100.914640813     a.u. after    6 cycles

 Alpha  occ. eigenvalues --  -24.76157  -1.22054  -0.55289  -0.46423  -0.46423
 Alpha  occ. eigenvalues --   -0.40049
 Alpha virt. eigenvalues --    0.01245   0.20880   0.39955   0.89721   0.90958
 Alpha virt. eigenvalues --    0.90958   1.05313   1.08269   1.08269   1.41160
 Alpha virt. eigenvalues --    1.68582   1.68582   2.22383   2.37240   2.64261

  Beta  occ. eigenvalues --  -24.73018  -1.13027  -0.43276  -0.43276  -0.40019
  Beta virt. eigenvalues --   -0.26165   0.01439   0.21023   0.40342   0.92447
  Beta virt. eigenvalues --    0.92447   0.98407   1.08320   1.08320   1.09638
  Beta virt. eigenvalues --    1.41222   1.68621   1.68621   2.22493   2.37309

 Mulliken charges and spin densities:
               1          2
     1  H   -0.010094  -0.004538
     2  H    0.010339   0.010091
     3  F   -0.000245   0.994447
 Sum of Mulliken charges =   0.00000   1.00000

 Dipole moment (field-independent basis, Debye):
    X=             -0.0602    Y=              0.0000    Z=             -0.0000  Tot=              0.0602
 Quadrupole moment (field-independent basis, Debye-Ang):
   XX=             -5.5340   YY=             -7.2103   ZZ=             -7.2103
   XY=              0.0000   XZ=             -0.0000   YZ=             -0.0000

  Exact polarizability:      14.615      -0.000       2.048       0.000       0.000       2.048
 Approx polarizability:      17.378      -0.000       2.106       0.000      -0.000       2.106

 ******    1 imaginary frequencies (negative Signs) ******

                      1                      2                      3
                      A                      A                      A
 Frequencies --    -89.5171              1506.8775              1506.8775
 Red. masses --      1.1085                 1.0097                 1.0097
 Frc consts  --      0.0052                 1.3509                 1.3509
 IR Inten    --      0.7517                 0.1074                 0.1074

                      4
                      A
 Frequencies --   2187.6330
 Red. masses --      1.0078
 Frc consts  --      2.8417
 IR Inten    --      9.0671

 - Thermochemistry -
 -------------------
 Temperature   298.150 Kelvin.  Pressure   1.00000 Atm.
 Atom     1 has atomic number  1 and mass   1.00783

 Molecular mass:    21.01405 amu.
 Principal axes and moments of inertia in atomic units:
                           1         2         3
     Eigenvalues --     0.00000  77.96214  77.96214
           X            1.00000  -0.00000   0.00000
           Y            0.00000   1.00000   0.00000
           Z            0.00000   0.00000   1.00000
 This molecule is a prolate symmetric top.
 Rotational symmetry number  1.
 Rotational temperature (Kelvin)      1.11097
 Rotational constant (GHZ):          23.148943
    1 imaginary frequencies ignored.
 Zero-point vibrational energy      31111.2 (Joules/Mol)
                                    7.43576 (Kcal/Mol)
 Vibrational temperatures:   2168.06  2168.06  3147.52
          (Kelvin)

 Zero-point correction=                           0.011850 (Hartree/Particle)
 Thermal correction to Energy=                    0.014220
 Thermal correction to Enthalpy=                  0.015164
 Thermal correction to Gibbs Free Energy=        -0.008388
 Sum of electronic and zero-point Energies=           -100.902791
 Sum of electronic and thermal Energies=              -100.900421
 Sum of electronic and thermal Enthalpies=            -100.899477
 Sum of electronic and thermal Free Energies=         -100.923029

                     E (Thermal)             CV                S
                      KCal/Mol        Cal/Mol-Kelvin    Cal/Mol-Kelvin
 Total                    8.923              5.120             49.569
 Electronic               0.000              0.000              1.377
 Translational            0.889              2.981             35.068
 Rotational               0.592              1.987             13.100
 Vibrational              7.442              0.152              0.023

 Normal termination of Gaussian 16 at Fri Aug 22 19:11:54 2025.
