 Gaussian 16, Revision C.01,
 Gaussian 16:  ES64L-G16RevC.01  3-Jul-2019

 -----------------------------------------
 # sp b3lyp/6-311g** Force nosymm scf=(qc)
 -----------------------------------------

 -------------------
 Title Card Required
 -------------------
 Symbolic Z-matrix:
 Charge =  0 Multiplicity = 2

                          Input orientation:
 ---------------------------------------------------------------------
 Center     Atomic      Atomic             Coordinates (Angstroms)
 Number     Number       Type             X           Y           Z
 ---------------------------------------------------------------------
      1          1           0        0.000000    0.000000    0.000000
      2          1           0       -0.800000    0.000000    0.000000
      3          9           0        1.050000    0.000000    0.000000
 ---------------------------------------------------------------------

 SCF Done:  E(UB3LYP) =  -100.944309093     a.u. after    5 cycles

 Alpha  occ. eigenvalues --  -24.66476  -1.18349  -0.60955  -0.40649  -0.40649
 Alpha  occ. eigenvalues --   -0.36394
 Alpha virt. eigenvalues --    0.12892   0.18559   0.50891   0.87910   0.87910
 Alpha virt. eigenvalues --    0.96168   1.09077   1.09077   1.45475   1.70524
 Alpha virt. eigenvalues --    1.73361   1.73361   2.10089   2.32795   3.34473

  Beta  occ. eigenvalues --  -24.64955  -1.14496  -0.53503  -0.39266  -0.39266
  Beta virt. eigenvalues --   -0.18934   0.14909   0.20104   0.56128   0.89724
  Beta virt. eigenvalues --    0.89724   0.99305   1.13476   1.13476   1.47730
  Beta virt. eigenvalues --    1.77321   1.77321   1.78344   2.10290   2.41310

 Mulliken charges and spin densities:
               1          2
     1  H    0.275046  -0.024580
     2  H   -0.011583   0.624346
     3  F   -0.263462   0.400235
 Sum of Mulliken charges =   0.00000   1.00000

 Dipole moment (field-independent basis, Debye):
    X=             -1.6823    Y=             -0.0000    Z=             -0.0000  Tot=              1.6823
 Quadrupole moment (field-independent basis, Debye-Ang):
   XX=             -7.5027   YY=             -6.6070   ZZ=             -6.6070
   XY=             -0.0000   XZ=             -0.0000   YZ=              0.0000

  Exact polarizability:      15.077      -0.000       2.538       0.000      -0.000       2.538
 Approx polarizability:      18.589       0.000       2.580       0.000      -0.000       2.580

 ******    2 imaginary frequencies (negative Signs) ******

                      1                      2                      3
                      A                      A                      A
 Frequencies --  -1369.2680             -1369.2680              1633.5903
 Red. masses --      1.0150                 1.0150                 1.1051
 Frc consts  --      1.1212                 1.1212                 1.7376
 IR Inten    --     30.5566                30.5566                 0.3183

                      4
                      A
 Frequencies --   2980.3163
 Red. masses --      1.0106
 Frc consts  --      5.2890
 IR Inten    --    197.6557

 - Thermochemistry -
 -------------------
 Temperature   298.150 Kelvin.  Pressure   1.00000 Atm.
 Atom     1 has atomic number  1 and mass   1.00783

 Molecular mass:    21.01405 amu.
 Principal axes and moments of inertia in atomic units:
                           1         2         3
     Eigenvalues --     0.00000  14.83389  14.83389
           X            1.00000  -0.00000   0.00000
           Y            0.00000   1.00000   0.00000
           Z            0.00000   0.00000   1.00000
 This molecule is a prolate symmetric top.
 Rotational symmetry number  1.
 Rotational temperature (Kelvin)      5.83892
 Rotational constant (GHZ):         121.663385
    2 imaginary frequencies ignored.
 Zero-point vibrational energy      27597.3 (Joules/Mol)
                                    6.59591 (Kcal/Mol)
 Vibrational temperatures:   2350.37  4288.01
          (Kelvin)

 Zero-point correction=                           0.010511 (Hartree/Particle)
 Thermal correction to Energy=                    0.012875
 Thermal correction to Enthalpy=                  0.013819
 Thermal correction to Gibbs Free Energy=        -0.008159
 Sum of electronic and zero-point Energies=           -100.933798
 Sum of electronic and thermal Energies=              -100.931435
 Sum of electronic and thermal Enthalpies=            -100.930490
 Sum of electronic and thermal Free Energies=         -100.952468

                     E (Thermal)             CV                S
                      KCal/Mol        Cal/Mol-Kelvin    Cal/Mol-Kelvin
 Total                    8.079              5.015             46.255
 Electronic               0.000              0.000              1.377
 Translational            0.889              2.981             35.068
 Rotational               0.592              1.987              9.803
 Vibrational              6.598              0.047              0.007

 Normal termination of Gaussian 16 at Fri Aug 22 16:02:05 2025.
