 Gaussian 16, Revision C.01,
 Gaussian 16:  ES64L-G16RevC.01  3-Jul-2019

 -----------------------------------------
 # sp b3lyp/6-311g** Force nosymm scf=(qc)
 -----------------------------------------

 -------------------
 Title Card Required
 -------------------
 Symbolic Z-matrix:
 Charge =  0 Multiplicity = 2

                          Input orientation:
 ---------------------------------------------------------------------
 Center     Atomic      Atomic             Coordinates (Angstroms)
 Number     Number       Type             X           Y           Z
 ---------------------------------------------------------------------
      1          1           0        0.000000    0.000000    0.000000
      2          1           0       -2.350000    0.000000    0.000000
      3          9           0        1.550000    0.000000    0.000000
 ---------------------------------------------------------------------

 SCF Done:  E(UB3LYP) =  -100.846740812     a.u. after    9 cycles

 Alpha  occ. eigenvalues --  -24.64231  -1.09972  -0.43388  -0.36305  -0.36305
 Alpha  occ. eigenvalues --   -0.36187
 Alpha virt. eigenvalues --   -0.13689   0.23337   0.27030   0.94233   0.94233
 Alpha virt. eigenvalues --    1.02342   1.08315   1.21300   1.21300   1.25800
 Alpha virt. eigenvalues --    1.32515   1.32515   1.75055   2.11710   2.21696

  Beta  occ. eigenvalues --  -24.63559  -1.08183  -0.41585  -0.35664  -0.35664
  Beta virt. eigenvalues --   -0.17305  -0.08604   0.25073   0.34490   0.94010
  Beta virt. eigenvalues --    0.94010   1.03821   1.08961   1.29382   1.29382
  Beta virt. eigenvalues --    1.40585   1.40585   1.43059   1.73987   2.15891

 Mulliken charges and spin densities:
               1          2
     1  H    0.316311  -0.177678
     2  H    0.026914   0.966208
     3  F   -0.343225   0.211470
 Sum of Mulliken charges =   0.00000   1.00000

 Dipole moment (field-independent basis, Debye):
    X=             -2.9072    Y=             -0.0000    Z=             -0.0000  Tot=              2.9072
 Quadrupole moment (field-independent basis, Debye-Ang):
   XX=             -9.2897   YY=             -7.3513   ZZ=             -7.3513
   XY=             -0.0000   XZ=             -0.0000   YZ=             -0.0000

  Exact polarizability:      26.996       0.000       2.185       0.000       0.000       2.185
 Approx polarizability:      39.787      -0.000       2.108      -0.000       0.000       2.108

 ******    2 imaginary frequencies (negative Signs) ******

                      1                      2                      3
                      A                      A                      A
 Frequencies --  -1802.6069              -325.9366               941.4713
 Red. masses --      1.0470                 1.0647                 1.0237
 Frc consts  --      2.0045                 0.0666                 0.5346
 IR Inten    --      3.4111                 5.4311                83.1978

                      4
                      A
 Frequencies --    941.4713
 Red. masses --      1.0237
 Frc consts  --      0.5346
 IR Inten    --     83.1978

 - Thermochemistry -
 -------------------
 Temperature   298.150 Kelvin.  Pressure   1.00000 Atm.
 Atom     1 has atomic number  1 and mass   1.00783

 Molecular mass:    21.01405 amu.
 Principal axes and moments of inertia in atomic units:
                           1         2         3
     Eigenvalues --     0.00000  58.26068  58.26068
           X            1.00000  -0.00000   0.00000
           Y            0.00000   1.00000   0.00000
           Z            0.00000   0.00000   1.00000
 This molecule is a prolate symmetric top.
 Rotational symmetry number  1.
 Rotational temperature (Kelvin)      1.48666
 Rotational constant (GHZ):          30.977002
    2 imaginary frequencies ignored.
 Zero-point vibrational energy      11262.5 (Joules/Mol)
                                    2.69180 (Kcal/Mol)
 Vibrational temperatures:   1354.57  1354.57
          (Kelvin)

 Zero-point correction=                           0.004290 (Hartree/Particle)
 Thermal correction to Energy=                    0.006742
 Thermal correction to Enthalpy=                  0.007687
 Thermal correction to Gibbs Free Energy=        -0.015692
 Sum of electronic and zero-point Energies=           -100.842451
 Sum of electronic and thermal Energies=              -100.839998
 Sum of electronic and thermal Enthalpies=            -100.839054
 Sum of electronic and thermal Free Energies=         -100.862432

                     E (Thermal)             CV                S
                      KCal/Mol        Cal/Mol-Kelvin    Cal/Mol-Kelvin
 Total                    4.231              5.860             49.204
 Electronic               0.000              0.000              1.377
 Translational            0.889              2.981             35.068
 Rotational               0.592              1.987             12.521
 Vibrational              2.750              0.892              0.237

 Normal termination of Gaussian 16 at Fri Aug 22 16:28:35 2025.
