 Gaussian 16, Revision C.01,
 Gaussian 16:  ES64L-G16RevC.01  3-Jul-2019

 -----------------------------------------
 # sp b3lyp/6-311g** Force nosymm scf=(qc)
 -----------------------------------------

 -------------------
 Title Card Required
 -------------------
 Symbolic Z-matrix:
 Charge =  0 Multiplicity = 2

                          Input orientation:
 ---------------------------------------------------------------------
 Center     Atomic      Atomic             Coordinates (Angstroms)
 Number     Number       Type             X           Y           Z
 ---------------------------------------------------------------------
      1          1           0        0.000000    0.000000    0.000000
      2          1           0       -1.250000    0.000000    0.000000
      3          9           0        1.300000    0.000000    0.000000
 ---------------------------------------------------------------------

 SCF Done:  E(UB3LYP) =  -100.922686176     a.u. after    8 cycles

 Alpha  occ. eigenvalues --  -24.64839  -1.12740  -0.51064  -0.38297  -0.37747
 Alpha  occ. eigenvalues --   -0.37747
 Alpha virt. eigenvalues --    0.01549   0.19719   0.30973   0.91914   0.91914
 Alpha virt. eigenvalues --    1.00724   1.10471   1.10471   1.14440   1.49719
 Alpha virt. eigenvalues --    1.49719   1.57433   2.04117   2.27419   2.45083

  Beta  occ. eigenvalues --  -24.63583  -1.09464  -0.45037  -0.36570  -0.36570
  Beta virt. eigenvalues --   -0.21479   0.04820   0.22656   0.33651   0.92456
  Beta virt. eigenvalues --    0.92456   1.03655   1.16623   1.16623   1.19961
  Beta virt. eigenvalues --    1.52851   1.52851   1.60613   2.11904   2.30262

 Mulliken charges and spin densities:
               1          2
     1  H    0.264456  -0.101803
     2  H    0.062150   0.726727
     3  F   -0.326606   0.375076
 Sum of Mulliken charges =   0.00000   1.00000

 Dipole moment (field-independent basis, Debye):
    X=             -2.5553    Y=              0.0000    Z=             -0.0000  Tot=              2.5553
 Quadrupole moment (field-independent basis, Debye-Ang):
   XX=             -7.8861   YY=             -7.0044   ZZ=             -7.0044
   XY=              0.0000   XZ=             -0.0000   YZ=             -0.0000

  Exact polarizability:      25.805       0.000       2.446       0.000       0.000       2.446
 Approx polarizability:      35.940       0.000       2.420       0.000       0.000       2.420

 ******    1 imaginary frequencies (negative Signs) ******

                      1                      2                      3
                      A                      A                      A
 Frequencies --  -2581.9939               589.6922              1134.5354
 Red. masses --      1.0229                 1.0909                 1.0175
 Frc consts  --      4.0177                 0.2235                 0.7716
 IR Inten    --    211.2852                35.1983                33.0517

                      4
                      A
 Frequencies --   1134.5354
 Red. masses --      1.0175
 Frc consts  --      0.7716
 IR Inten    --     33.0517

 - Thermochemistry -
 -------------------
 Temperature   298.150 Kelvin.  Pressure   1.00000 Atm.
 Atom     1 has atomic number  1 and mass   1.00783

 Molecular mass:    21.01405 amu.
 Principal axes and moments of inertia in atomic units:
                           1         2         3
     Eigenvalues --     0.00000  26.92641  26.92641
           X            1.00000  -0.00000   0.00000
           Y            0.00000   1.00000   0.00000
           Z            0.00000   0.00000   1.00000
 This molecule is a prolate symmetric top.
 Rotational symmetry number  1.
 Rotational temperature (Kelvin)      3.21669
 Rotational constant (GHZ):          67.024943
    1 imaginary frequencies ignored.
 Zero-point vibrational energy      17099.2 (Joules/Mol)
                                    4.08681 (Kcal/Mol)
 Warning -- explicit consideration of   1 degrees of freedom as
           vibrations may cause significant error
 Vibrational temperatures:    848.44  1632.34  1632.34
          (Kelvin)

 Zero-point correction=                           0.006513 (Hartree/Particle)
 Thermal correction to Energy=                    0.009082
 Thermal correction to Enthalpy=                  0.010027
 Thermal correction to Gibbs Free Energy=        -0.012784
 Sum of electronic and zero-point Energies=           -100.916173
 Sum of electronic and thermal Energies=              -100.913604
 Sum of electronic and thermal Enthalpies=            -100.912660
 Sum of electronic and thermal Free Energies=         -100.935470

                     E (Thermal)             CV                S
                      KCal/Mol        Cal/Mol-Kelvin    Cal/Mol-Kelvin
 Total                    5.699              6.525             48.009
 Electronic               0.000              0.000              1.377
 Translational            0.889              2.981             35.068
 Rotational               0.592              1.987             10.988
 Vibrational              4.218              1.557              0.576
 Vibration     1          0.947              1.054              0.468

 Normal termination of Gaussian 16 at Fri Aug 22 16:14:30 2025.
