 Gaussian 16, Revision C.01,
 Gaussian 16:  ES64L-G16RevC.01  3-Jul-2019

 -----------------------------------------
 # sp b3lyp/6-311g** Force nosymm scf=(qc)
 -----------------------------------------

 -------------------
 Title Card Required
 -------------------
 Symbolic Z-matrix:
 Charge =  0 Multiplicity = 2

                          Input orientation:
 ---------------------------------------------------------------------
 Center     Atomic      Atomic             Coordinates (Angstroms)
 Number     Number       Type             X           Y           Z
 ---------------------------------------------------------------------
      1          1           0        0.000000    0.000000    0.000000
      2          1           0       -2.600000    0.000000    0.000000
      3          9           0        2.250000    0.000000    0.000000
 ---------------------------------------------------------------------

 SCF Done:  E(UB3LYP) =  -100.777330100     a.u. after   14 cycles

 Alpha  occ. eigenvalues --  -24.70091  -1.16380  -0.49156  -0.41320  -0.41320
 Alpha  occ. eigenvalues --   -0.34095
 Alpha virt. eigenvalues --   -0.12702   0.24297   0.32595   0.89097   0.94406
 Alpha virt. eigenvalues --    0.94406   1.06539   1.23523   1.23523   1.26034
 Alpha virt. eigenvalues --    1.36986   1.36986   1.49302   2.14546   2.31409

  Beta  occ. eigenvalues --  -24.67421  -1.08833  -0.38670  -0.38670  -0.36415
  Beta virt. eigenvalues --   -0.22258  -0.09378   0.25290   0.35099   0.93403
  Beta virt. eigenvalues --    0.95569   0.95569   1.08860   1.21776   1.21776
  Beta virt. eigenvalues --    1.39241   1.42145   1.42145   1.43907   2.13399

 Mulliken charges and spin densities:
               1          2
     1  H    0.121347  -0.818766
     2  H    0.011335   0.977443
     3  F   -0.132682   0.841323
 Sum of Mulliken charges =   0.00000   1.00000

 Dipole moment (field-independent basis, Debye):
    X=             -1.6419    Y=              0.0000    Z=              0.0000  Tot=              1.6419
 Quadrupole moment (field-independent basis, Debye-Ang):
   XX=             -9.2744   YY=             -7.5676   ZZ=             -7.5676
   XY=              0.0000   XZ=              0.0000   YZ=             -0.0000

  Exact polarizability:      38.668       0.000       2.030       0.000       0.000       2.030
 Approx polarizability:      45.409      -0.000       1.925      -0.000       0.000       1.925

 ******    2 imaginary frequencies (negative Signs) ******

                      1                      2                      3
                      A                      A                      A
 Frequencies --   -913.3459              -344.0549               376.3185
 Red. masses --      1.0369                 1.0754                 1.0198
 Frc consts  --      0.5096                 0.0750                 0.0851
 IR Inten    --     81.0173                14.3253                12.5050

                      4
                      A
 Frequencies --    376.3185
 Red. masses --      1.0198
 Frc consts  --      0.0851
 IR Inten    --     12.5050

 - Thermochemistry -
 -------------------
 Temperature   298.150 Kelvin.  Pressure   1.00000 Atm.
 Atom     1 has atomic number  1 and mass   1.00783

 Molecular mass:    21.01405 amu.
 Principal axes and moments of inertia in atomic units:
                           1         2         3
     Eigenvalues --     0.00000  94.17654  94.17654
           X            1.00000  -0.00000   0.00000
           Y            0.00000   1.00000   0.00000
           Z            0.00000   0.00000   1.00000
 This molecule is a prolate symmetric top.
 Rotational symmetry number  1.
 Rotational temperature (Kelvin)      0.91970
 Rotational constant (GHZ):          19.163383
    2 imaginary frequencies ignored.
 Zero-point vibrational energy       4501.8 (Joules/Mol)
                                    1.07595 (Kcal/Mol)
 Warning -- explicit consideration of   2 degrees of freedom as
           vibrations may cause significant error
 Vibrational temperatures:    541.44   541.44
          (Kelvin)

 Zero-point correction=                           0.001715 (Hartree/Particle)
 Thermal correction to Energy=                    0.004741
 Thermal correction to Enthalpy=                  0.005686
 Thermal correction to Gibbs Free Energy=        -0.019035
 Sum of electronic and zero-point Energies=           -100.775615
 Sum of electronic and thermal Energies=              -100.772589
 Sum of electronic and thermal Enthalpies=            -100.771645
 Sum of electronic and thermal Free Energies=         -100.796365

                     E (Thermal)             CV                S
                      KCal/Mol        Cal/Mol-Kelvin    Cal/Mol-Kelvin
 Total                    2.975              8.009             52.029
 Electronic               0.000              0.000              1.377
 Translational            0.889              2.981             35.068
 Rotational               0.592              1.987             13.476
 Vibrational              1.494              3.041              2.108
 Vibration     1          0.747              1.521              1.054
 Vibration     2          0.747              1.521              1.054

 Normal termination of Gaussian 16 at Fri Aug 22 17:16:58 2025.
