 Gaussian 16, Revision C.01,
 Gaussian 16:  ES64L-G16RevC.01  3-Jul-2019

 -----------------------------------------
 # sp b3lyp/6-311g** Force nosymm scf=(qc)
 -----------------------------------------

 -------------------
 Title Card Required
 -------------------
 Symbolic Z-matrix:
 Charge =  0 Multiplicity = 2

                          Input orientation:
 ---------------------------------------------------------------------
 Center     Atomic      Atomic             Coordinates (Angstroms)
 Number     Number       Type             X           Y           Z
 ---------------------------------------------------------------------
      1          1           0        0.000000    0.000000    0.000000
      2          1           0       -1.700000    0.000000    0.000000
      3          9           0        3.450000    0.000000    0.000000
 ---------------------------------------------------------------------

 SCF Done:  E(UB3LYP) =  -100.794986934     a.u. after   37 cycles

 Alpha  occ. eigenvalues --  -24.76136  -1.22034  -0.55228  -0.46428  -0.46404
 Alpha  occ. eigenvalues --   -0.33188
 Alpha virt. eigenvalues --   -0.10667   0.25661   0.30782   0.86437   0.90976
 Alpha virt. eigenvalues --    0.91914   1.01506   1.07519   1.23721   1.23722
 Alpha virt. eigenvalues --    1.38148   1.38152   1.67689   2.16857   2.41852

  Beta  occ. eigenvalues --  -24.72992  -1.12993  -0.43285  -0.43252  -0.33160
  Beta virt. eigenvalues --   -0.25964  -0.10660   0.25650   0.30950   0.92475
  Beta virt. eigenvalues --    0.93207   0.95978   1.05565   1.07530   1.23730
  Beta virt. eigenvalues --    1.23733   1.38177   1.38179   1.67777   2.17248

 Mulliken charges and spin densities:
               1          2
     1  H    0.000093  -0.610707
     2  H    0.000628   0.613859
     3  F   -0.000721   0.996847
 Sum of Mulliken charges =   0.00000   1.00000

 Dipole moment (field-independent basis, Debye):
    X=             -0.0312    Y=              0.0010    Z=             -0.0005  Tot=              0.0312
 Quadrupole moment (field-independent basis, Debye-Ang):
   XX=             -6.4422   YY=             -7.2576   ZZ=             -7.6674
   XY=              0.3584   XZ=             -0.1590   YZ=             -0.2264

  Exact polarizability:      62.841       0.165       2.293       0.282      -0.119       2.081
 Approx polarizability:      42.692       0.198       2.323      -0.088      -0.153       2.047

 ******    2 imaginary frequencies (negative Signs) ******

                      1                      2                      3
                      A                      A                      A
 Frequencies --  -1936.6268              -115.5470               903.9303
 Red. masses --      1.0078                 1.1085                 1.0116
 Frc consts  --      2.2271                 0.0087                 0.4870
 IR Inten    --    168.7226                12.5195                 0.5247

                      4
                      A
 Frequencies --    904.9985
 Red. masses --      1.0116
 Frc consts  --      0.4882
 IR Inten    --      0.0146

 - Thermochemistry -
 -------------------
 Temperature   298.150 Kelvin.  Pressure   1.00000 Atm.
 Atom     1 has atomic number  1 and mass   1.00783

 Molecular mass:    21.01405 amu.
 Principal axes and moments of inertia in atomic units:
                           1         2         3
     Eigenvalues --     0.00000 125.52590 125.52590
           X            1.00000  -0.00000   0.00000
           Y            0.00000   1.00000   0.00000
           Z            0.00000   0.00000   1.00000
 This molecule is a prolate symmetric top.
 Rotational symmetry number  1.
 Rotational temperature (Kelvin)      0.69001
 Rotational constant (GHZ):          14.377441
    2 imaginary frequencies ignored.
 Zero-point vibrational energy      10819.8 (Joules/Mol)
                                    2.58599 (Kcal/Mol)
 Vibrational temperatures:   1300.55  1302.09
          (Kelvin)

 Zero-point correction=                           0.004121 (Hartree/Particle)
 Thermal correction to Energy=                    0.006588
 Thermal correction to Enthalpy=                  0.007532
 Thermal correction to Gibbs Free Energy=        -0.016589
 Sum of electronic and zero-point Energies=           -100.790866
 Sum of electronic and thermal Energies=              -100.788399
 Sum of electronic and thermal Enthalpies=            -100.787455
 Sum of electronic and thermal Free Energies=         -100.811576

                     E (Thermal)             CV                S
                      KCal/Mol        Cal/Mol-Kelvin    Cal/Mol-Kelvin
 Total                    4.134              5.956             50.767
 Electronic               0.000              0.000              1.377
 Translational            0.889              2.981             35.068
 Rotational               0.592              1.987             14.047
 Vibrational              2.653              0.988              0.274

 Normal termination of Gaussian 16 at Fri Aug 22 21:40:23 2025.
