 Gaussian 16, Revision C.01,
 Gaussian 16:  ES64L-G16RevC.01  3-Jul-2019

 -----------------------------------------
 # sp b3lyp/6-311g** Force nosymm scf=(qc)
 -----------------------------------------

 -------------------
 Title Card Required
 -------------------
 Symbolic Z-matrix:
 Charge =  0 Multiplicity = 2

                          Input orientation:
 ---------------------------------------------------------------------
 Center     Atomic      Atomic             Coordinates (Angstroms)
 Number     Number       Type             X           Y           Z
 ---------------------------------------------------------------------
      1          1           0        0.000000    0.000000    0.000000
      2          1           0       -1.450000    0.000000    0.000000
      3          9           0        0.550000    0.000000    0.000000
 ---------------------------------------------------------------------

 SCF Done:  E(UB3LYP) =  -100.509404870     a.u. after    6 cycles

 Alpha  occ. eigenvalues --  -24.63054  -1.39118  -0.63222  -0.44021  -0.44021
 Alpha  occ. eigenvalues --   -0.35456
 Alpha virt. eigenvalues --    0.14522   0.21784   0.63690   0.90409   0.90409
 Alpha virt. eigenvalues --    0.90496   1.17796   1.17796   1.44396   1.58724
 Alpha virt. eigenvalues --    1.58724   1.68664   1.96628   2.25327   3.76849

  Beta  occ. eigenvalues --  -24.62947  -1.38768  -0.62740  -0.43950  -0.43950
  Beta virt. eigenvalues --   -0.11250   0.15575   0.30534   0.68799   0.90640
  Beta virt. eigenvalues --    0.90640   0.90685   1.32470   1.32470   1.46834
  Beta virt. eigenvalues --    1.62176   1.62176   1.81056   1.96832   2.49206

 Mulliken charges and spin densities:
               1          2
     1  H    0.183019   0.015217
     2  H    0.007691   0.979141
     3  F   -0.190710   0.005642
 Sum of Mulliken charges =   0.00000   1.00000

 Dipole moment (field-independent basis, Debye):
    X=             -1.3257    Y=             -0.0000    Z=              0.0000  Tot=              1.3257
 Quadrupole moment (field-independent basis, Debye-Ang):
   XX=             -6.7693   YY=             -6.4156   ZZ=             -6.4156
   XY=             -0.0000   XZ=              0.0000   YZ=              0.0000

  Exact polarizability:       5.914       0.000       2.501       0.000      -0.000       2.501
 Approx polarizability:       5.605       0.000       2.520      -0.000      -0.000       2.520

 ******    2 imaginary frequencies (negative Signs) ******

                      1                      2                      3
                      A                      A                      A
 Frequencies --  -7328.1921             -7328.1921              1028.3466
 Red. masses --      1.0325                 1.0325                 1.0535
 Frc consts  --     32.6698                32.6698                 0.6564
 IR Inten    --    186.8868               186.8868                10.0484

                      4
                      A
 Frequencies --  15780.5753
 Red. masses --      1.0581
 Frc consts  --    155.2472
 IR Inten    --     88.2549

 - Thermochemistry -
 -------------------
 Temperature   298.150 Kelvin.  Pressure   1.00000 Atm.
 Atom     1 has atomic number  1 and mass   1.00783

 Molecular mass:    21.01405 amu.
 Principal axes and moments of inertia in atomic units:
                           1         2         3
     Eigenvalues --     0.00000  14.36236  14.36236
           X            1.00000  -0.00000   0.00000
           Y            0.00000   1.00000   0.00000
           Z            0.00000   0.00000   1.00000
 This molecule is a prolate symmetric top.
 Rotational symmetry number  1.
 Rotational temperature (Kelvin)      6.03062
 Rotational constant (GHZ):         125.657725
    2 imaginary frequencies ignored.
 Zero-point vibrational energy     100539.7 (Joules/Mol)
                                   24.02956 (Kcal/Mol)
 Vibrational temperatures:   1479.56 22704.73
          (Kelvin)

 Zero-point correction=                           0.038294 (Hartree/Particle)
 Thermal correction to Energy=                    0.040687
 Thermal correction to Enthalpy=                  0.041631
 Thermal correction to Gibbs Free Energy=         0.019648
 Sum of electronic and zero-point Energies=           -100.471111
 Sum of electronic and thermal Energies=              -100.468718
 Sum of electronic and thermal Enthalpies=            -100.467774
 Sum of electronic and thermal Free Energies=         -100.489757

                     E (Thermal)             CV                S
                      KCal/Mol        Cal/Mol-Kelvin    Cal/Mol-Kelvin
 Total                   25.531              5.315             46.268
 Electronic               0.000              0.000              1.377
 Translational            0.889              2.981             35.068
 Rotational               0.592              1.987              9.739
 Vibrational             24.050              0.347              0.083

 Normal termination of Gaussian 16 at Fri Aug 22 15:38:57 2025.
