 Gaussian 16, Revision C.01,
 Gaussian 16:  ES64L-G16RevC.01  3-Jul-2019

 -----------------------------------------
 # sp b3lyp/6-311g** Force nosymm scf=(qc)
 -----------------------------------------

 -------------------
 Title Card Required
 -------------------
 Symbolic Z-matrix:
 Charge =  0 Multiplicity = 2

                          Input orientation:
 ---------------------------------------------------------------------
 Center     Atomic      Atomic             Coordinates (Angstroms)
 Number     Number       Type             X           Y           Z
 ---------------------------------------------------------------------
      1          1           0        0.000000    0.000000    0.000000
      2          1           0       -0.550000    0.000000    0.000000
      3          9           0        1.400000    0.000000    0.000000
 ---------------------------------------------------------------------

 SCF Done:  E(UB3LYP) =  -100.887729821     a.u. after    6 cycles

 Alpha  occ. eigenvalues --  -24.71455  -1.19061  -0.60429  -0.43446  -0.43233
 Alpha  occ. eigenvalues --   -0.43233
 Alpha virt. eigenvalues --    0.12268   0.19375   0.54418   0.87934   0.87934
 Alpha virt. eigenvalues --    0.96202   1.12278   1.12278   1.42506   1.63687
 Alpha virt. eigenvalues --    1.84579   1.94266   1.94266   2.46310   3.75328

  Beta  occ. eigenvalues --  -24.68724  -1.11670  -0.52849  -0.40602  -0.40602
  Beta virt. eigenvalues --   -0.22247   0.13162   0.20059   0.57025   0.89190
  Beta virt. eigenvalues --    0.89190   1.02329   1.14431   1.14431   1.46400
  Beta virt. eigenvalues --    1.66644   1.85560   1.95584   1.95584   2.49664

 Mulliken charges and spin densities:
               1          2
     1  H    0.157548  -0.021486
     2  H   -0.018042   0.213616
     3  F   -0.139507   0.807870
 Sum of Mulliken charges =   0.00000   1.00000

 Dipole moment (field-independent basis, Debye):
    X=             -0.9421    Y=             -0.0000    Z=              0.0000  Tot=              0.9421
 Quadrupole moment (field-independent basis, Debye-Ang):
   XX=             -6.7096   YY=             -6.5149   ZZ=             -6.5149
   XY=             -0.0000   XZ=              0.0000   YZ=             -0.0000

  Exact polarizability:      14.004       0.000       2.272       0.000      -0.000       2.272
 Approx polarizability:      16.601      -0.000       2.331      -0.000      -0.000       2.331

 ******    2 imaginary frequencies (negative Signs) ******

                      1                      2                      3
                      A                      A                      A
 Frequencies --  -3854.8969             -3854.8969               742.5534
 Red. masses --      1.0105                 1.0105                 1.1085
 Frc consts  --      8.8472                 8.8472                 0.3601
 IR Inten    --      0.3311                 0.3311                52.4570

                      4
                      A
 Frequencies --   8155.9276
 Red. masses --      1.0078
 Frc consts  --     39.4994
 IR Inten    --    465.3647

 - Thermochemistry -
 -------------------
 Temperature   298.150 Kelvin.  Pressure   1.00000 Atm.
 Atom     1 has atomic number  1 and mass   1.00783

 Molecular mass:    21.01405 amu.
 Principal axes and moments of inertia in atomic units:
                           1         2         3
     Eigenvalues --     0.00000  18.80221  18.80221
           X            1.00000  -0.00000   0.00000
           Y            0.00000   1.00000   0.00000
           Z            0.00000   0.00000   1.00000
 This molecule is a prolate symmetric top.
 Rotational symmetry number  1.
 Rotational temperature (Kelvin)      4.60658
 Rotational constant (GHZ):          95.985612
    2 imaginary frequencies ignored.
 Zero-point vibrational energy      53224.7 (Joules/Mol)
                                   12.72102 (Kcal/Mol)
 Vibrational temperatures:   1068.37 11734.56
          (Kelvin)

 Zero-point correction=                           0.020272 (Hartree/Particle)
 Thermal correction to Energy=                    0.022729
 Thermal correction to Enthalpy=                  0.023674
 Thermal correction to Gibbs Free Energy=         0.001352
 Sum of electronic and zero-point Energies=           -100.867458
 Sum of electronic and thermal Energies=              -100.865000
 Sum of electronic and thermal Enthalpies=            -100.864056
 Sum of electronic and thermal Free Energies=         -100.886377

                     E (Thermal)             CV                S
                      KCal/Mol        Cal/Mol-Kelvin    Cal/Mol-Kelvin
 Total                   14.263              5.718             46.979
 Electronic               0.000              0.000              1.377
 Translational            0.889              2.981             35.068
 Rotational               0.592              1.987             10.274
 Vibrational             12.782              0.750              0.259

 Normal termination of Gaussian 16 at Fri Aug 22 16:19:00 2025.
