 Gaussian 16, Revision C.01,
 Gaussian 16:  ES64L-G16RevC.01  3-Jul-2019

 -----------------------------------------
 # sp b3lyp/6-311g** Force nosymm scf=(qc)
 -----------------------------------------

 -------------------
 Title Card Required
 -------------------
 Symbolic Z-matrix:
 Charge =  0 Multiplicity = 2

                          Input orientation:
 ---------------------------------------------------------------------
 Center     Atomic      Atomic             Coordinates (Angstroms)
 Number     Number       Type             X           Y           Z
 ---------------------------------------------------------------------
      1          1           0        0.000000    0.000000    0.000000
      2          1           0       -2.000000    0.000000    0.000000
      3          9           0        3.500000    0.000000    0.000000
 ---------------------------------------------------------------------

 SCF Done:  E(UB3LYP) =  -100.774603365     a.u. after   30 cycles

 Alpha  occ. eigenvalues --  -24.75589  -1.21537  -0.54712  -0.45942  -0.45942
 Alpha  occ. eigenvalues --   -0.33106
 Alpha virt. eigenvalues --   -0.11018   0.25869   0.32226   0.87595   0.91340
 Alpha virt. eigenvalues --    0.91340   1.01717   1.17090   1.24871   1.24871
 Alpha virt. eigenvalues --    1.37836   1.37836   1.51156   2.13128   2.36547

  Beta  occ. eigenvalues --  -24.72467  -1.12566  -0.42812  -0.42812  -0.33181
  Beta virt. eigenvalues --   -0.25638  -0.10771   0.25770   0.32666   0.92832
  Beta virt. eigenvalues --    0.92832   0.96771   1.05769   1.17070   1.24772
  Beta virt. eigenvalues --    1.24772   1.38178   1.38178   1.51407   2.13689

 Mulliken charges and spin densities:
               1          2
     1  H    0.002835  -0.847385
     2  H    0.005963   0.857624
     3  F   -0.008797   0.989761
 Sum of Mulliken charges =   0.00000   1.00000

 Dipole moment (field-independent basis, Debye):
    X=             -0.2142    Y=              0.0000    Z=             -0.0000  Tot=              0.2142
 Quadrupole moment (field-independent basis, Debye-Ang):
   XX=             -6.5996   YY=             -7.7262   ZZ=             -7.7262
   XY=              0.0000   XZ=             -0.0000   YZ=             -0.0000

  Exact polarizability:      43.268      -0.000       2.000       0.000       0.000       2.000
 Approx polarizability:      37.893       0.000       1.938      -0.000       0.000       1.938

 ******    2 imaginary frequencies (negative Signs) ******

                      1                      2                      3
                      A                      A                      A
 Frequencies --  -1355.6837              -133.3661               551.8367
 Red. masses --      1.0078                 1.1085                 1.0126
 Frc consts  --      1.0913                 0.0116                 0.1817
 IR Inten    --      9.7933                 6.6840                 0.0003

                      4
                      A
 Frequencies --    551.8367
 Red. masses --      1.0126
 Frc consts  --      0.1817
 IR Inten    --      0.0003

 - Thermochemistry -
 -------------------
 Temperature   298.150 Kelvin.  Pressure   1.00000 Atm.
 Atom     1 has atomic number  1 and mass   1.00783

 Molecular mass:    21.01405 amu.
 Principal axes and moments of inertia in atomic units:
                           1         2         3
     Eigenvalues --     0.00000 138.97670 138.97670
           X            1.00000  -0.00000   0.00000
           Y            0.00000   1.00000   0.00000
           Z            0.00000   0.00000   1.00000
 This molecule is a prolate symmetric top.
 Rotational symmetry number  1.
 Rotational temperature (Kelvin)      0.62323
 Rotational constant (GHZ):          12.985926
    2 imaginary frequencies ignored.
 Zero-point vibrational energy       6601.4 (Joules/Mol)
                                    1.57778 (Kcal/Mol)
 Warning -- explicit consideration of   2 degrees of freedom as
           vibrations may cause significant error
 Vibrational temperatures:    793.97   793.97
          (Kelvin)

 Zero-point correction=                           0.002514 (Hartree/Particle)
 Thermal correction to Energy=                    0.005252
 Thermal correction to Enthalpy=                  0.006196
 Thermal correction to Gibbs Free Energy=        -0.018404
 Sum of electronic and zero-point Energies=           -100.772089
 Sum of electronic and thermal Energies=              -100.769352
 Sum of electronic and thermal Enthalpies=            -100.768407
 Sum of electronic and thermal Free Energies=         -100.793008

                     E (Thermal)             CV                S
                      KCal/Mol        Cal/Mol-Kelvin    Cal/Mol-Kelvin
 Total                    3.296              7.239             51.775
 Electronic               0.000              0.000              1.377
 Translational            0.889              2.981             35.068
 Rotational               0.592              1.987             14.249
 Vibrational              1.814              2.271              1.081
 Vibration     1          0.907              1.136              0.540
 Vibration     2          0.907              1.136              0.540

 Normal termination of Gaussian 16 at Fri Aug 22 22:09:00 2025.
