 Gaussian 16, Revision C.01,
 Gaussian 16:  ES64L-G16RevC.01  3-Jul-2019

 -----------------------------------------
 # sp b3lyp/6-311g** Force nosymm scf=(qc)
 -----------------------------------------

 -------------------
 Title Card Required
 -------------------
 Symbolic Z-matrix:
 Charge =  0 Multiplicity = 2

                          Input orientation:
 ---------------------------------------------------------------------
 Center     Atomic      Atomic             Coordinates (Angstroms)
 Number     Number       Type             X           Y           Z
 ---------------------------------------------------------------------
      1          1           0        0.000000    0.000000    0.000000
      2          1           0       -1.750000    0.000000    0.000000
      3          9           0        0.900000    0.000000    0.000000
 ---------------------------------------------------------------------

 SCF Done:  E(UB3LYP) =  -100.971440671     a.u. after    5 cycles

 Alpha  occ. eigenvalues --  -24.63584  -1.18786  -0.54157  -0.39331  -0.39331
 Alpha  occ. eigenvalues --   -0.36406
 Alpha virt. eigenvalues --    0.08392   0.22848   0.38057   0.94567   0.94567
 Alpha virt. eigenvalues --    0.98133   1.16128   1.19823   1.19823   1.38798
 Alpha virt. eigenvalues --    1.38798   1.53048   1.97605   2.25255   2.43300

  Beta  occ. eigenvalues --  -24.63472  -1.18500  -0.53468  -0.39235  -0.39235
  Beta virt. eigenvalues --   -0.13157   0.10446   0.31217   0.40073   0.94608
  Beta virt. eigenvalues --    0.94608   0.98463   1.25487   1.33650   1.33650
  Beta virt. eigenvalues --    1.43426   1.43426   1.58671   2.07227   2.31683

 Mulliken charges and spin densities:
               1          2
     1  H    0.276674   0.008263
     2  H    0.020205   0.964171
     3  F   -0.296879   0.027566
 Sum of Mulliken charges =   0.00000   1.00000

 Dipole moment (field-independent basis, Debye):
    X=             -2.0716    Y=              0.0000    Z=              0.0000  Tot=              2.0716
 Quadrupole moment (field-independent basis, Debye-Ang):
   XX=             -7.4743   YY=             -6.7974   ZZ=             -6.7974
   XY=              0.0000   XZ=              0.0000   YZ=              0.0000

  Exact polarizability:       9.749      -0.000       2.508      -0.000      -0.000       2.508
 Approx polarizability:      10.148       0.000       2.501       0.000      -0.000       2.501

 ******    2 imaginary frequencies (negative Signs) ******

                      1                      2                      3
                      A                      A                      A
 Frequencies --   -673.2763              -673.2763               362.5320
 Red. masses --      1.0276                 1.0276                 1.0526
 Frc consts  --      0.2744                 0.2744                 0.0815
 IR Inten    --    133.3066               133.3066                 0.7195

                      4
                      A
 Frequencies --   4375.1077
 Red. masses --      1.0590
 Frc consts  --     11.9432
 IR Inten    --    200.2452

 - Thermochemistry -
 -------------------
 Temperature   298.150 Kelvin.  Pressure   1.00000 Atm.
 Atom     1 has atomic number  1 and mass   1.00783

 Molecular mass:    21.01405 amu.
 Principal axes and moments of inertia in atomic units:
                           1         2         3
     Eigenvalues --     0.00000  26.01396  26.01396
           X            1.00000  -0.00000   0.00000
           Y            0.00000   1.00000   0.00000
           Z            0.00000   0.00000   1.00000
 This molecule is a prolate symmetric top.
 Rotational symmetry number  1.
 Rotational temperature (Kelvin)      3.32952
 Rotational constant (GHZ):          69.375885
    2 imaginary frequencies ignored.
 Zero-point vibrational energy      28337.4 (Joules/Mol)
                                    6.77280 (Kcal/Mol)
 Warning -- explicit consideration of   1 degrees of freedom as
           vibrations may cause significant error
 Vibrational temperatures:    521.60  6294.80
          (Kelvin)

 Zero-point correction=                           0.010793 (Hartree/Particle)
 Thermal correction to Energy=                    0.013501
 Thermal correction to Enthalpy=                  0.014445
 Thermal correction to Gibbs Free Energy=        -0.008587
 Sum of electronic and zero-point Energies=           -100.960648
 Sum of electronic and thermal Energies=              -100.957939
 Sum of electronic and thermal Enthalpies=            -100.956995
 Sum of electronic and thermal Free Energies=         -100.980028

                     E (Thermal)             CV                S
                      KCal/Mol        Cal/Mol-Kelvin    Cal/Mol-Kelvin
 Total                    8.472              6.517             48.476
 Electronic               0.000              0.000              1.377
 Translational            0.889              2.981             35.068
 Rotational               0.592              1.987             10.919
 Vibrational              6.991              1.549              1.111
 Vibration     1          0.736              1.549              1.111

 Normal termination of Gaussian 16 at Fri Aug 22 15:55:39 2025.
