 Gaussian 16, Revision C.01,
 Gaussian 16:  ES64L-G16RevC.01  3-Jul-2019

 -----------------------------------------
 # sp b3lyp/6-311g** Force nosymm scf=(qc)
 -----------------------------------------

 -------------------
 Title Card Required
 -------------------
 Symbolic Z-matrix:
 Charge =  0 Multiplicity = 2

                          Input orientation:
 ---------------------------------------------------------------------
 Center     Atomic      Atomic             Coordinates (Angstroms)
 Number     Number       Type             X           Y           Z
 ---------------------------------------------------------------------
      1          1           0        0.000000    0.000000    0.000000
      2          1           0       -1.650000    0.000000    0.000000
      3          9           0        1.400000    0.000000    0.000000
 ---------------------------------------------------------------------

 SCF Done:  E(UB3LYP) =  -100.888090214     a.u. after   10 cycles

 Alpha  occ. eigenvalues --  -24.63724  -1.10503  -0.46531  -0.37894  -0.36317
 Alpha  occ. eigenvalues --   -0.36317
 Alpha virt. eigenvalues --   -0.06527   0.21495   0.28218   0.93792   0.93792
 Alpha virt. eigenvalues --    0.99265   1.03457   1.17158   1.17158   1.37349
 Alpha virt. eigenvalues --    1.37349   1.47884   1.76811   2.15381   2.36485

  Beta  occ. eigenvalues --  -24.62909  -1.08367  -0.42892  -0.35549  -0.35549
  Beta virt. eigenvalues --   -0.19822  -0.02788   0.25381   0.30634   0.93757
  Beta virt. eigenvalues --    0.93757   1.04418   1.06070   1.26923   1.26923
  Beta virt. eigenvalues --    1.39966   1.39966   1.53672   1.80729   2.21858

 Mulliken charges and spin densities:
               1          2
     1  H    0.292535  -0.123276
     2  H    0.062440   0.872148
     3  F   -0.354975   0.251129
 Sum of Mulliken charges =   0.00000   1.00000

 Dipole moment (field-independent basis, Debye):
    X=             -2.9836    Y=              0.0000    Z=             -0.0000  Tot=              2.9836
 Quadrupole moment (field-independent basis, Debye-Ang):
   XX=             -8.3382   YY=             -7.1800   ZZ=             -7.1800
   XY=              0.0000   XZ=             -0.0000   YZ=             -0.0000

  Exact polarizability:      27.820       0.000       2.320      -0.000       0.000       2.320
 Approx polarizability:      38.157       0.000       2.267      -0.000       0.000       2.267

 ******    2 imaginary frequencies (negative Signs) ******

                      1                      2                      3
                      A                      A                      A
 Frequencies --  -2160.0033              -320.2984              1064.5015
 Red. masses --      1.0259                 1.0874                 1.0201
 Frc consts  --      2.8202                 0.0657                 0.6810
 IR Inten    --      2.4891                 7.4664                54.0570

                      4
                      A
 Frequencies --   1064.5015
 Red. masses --      1.0201
 Frc consts  --      0.6810
 IR Inten    --     54.0570

 - Thermochemistry -
 -------------------
 Temperature   298.150 Kelvin.  Pressure   1.00000 Atm.
 Atom     1 has atomic number  1 and mass   1.00783

 Molecular mass:    21.01405 amu.
 Principal axes and moments of inertia in atomic units:
                           1         2         3
     Eigenvalues --     0.00000  37.11579  37.11579
           X            1.00000  -0.00000   0.00000
           Y            0.00000   1.00000   0.00000
           Z            0.00000   0.00000   1.00000
 This molecule is a prolate symmetric top.
 Rotational symmetry number  1.
 Rotational temperature (Kelvin)      2.33361
 Rotational constant (GHZ):          48.624627
    2 imaginary frequencies ignored.
 Zero-point vibrational energy      12734.3 (Joules/Mol)
                                    3.04356 (Kcal/Mol)
 Vibrational temperatures:   1531.58  1531.58
          (Kelvin)

 Zero-point correction=                           0.004850 (Hartree/Particle)
 Thermal correction to Energy=                    0.007268
 Thermal correction to Enthalpy=                  0.008212
 Thermal correction to Gibbs Free Energy=        -0.014696
 Sum of electronic and zero-point Energies=           -100.883240
 Sum of electronic and thermal Energies=              -100.880822
 Sum of electronic and thermal Enthalpies=            -100.879878
 Sum of electronic and thermal Free Energies=         -100.902787

                     E (Thermal)             CV                S
                      KCal/Mol        Cal/Mol-Kelvin    Cal/Mol-Kelvin
 Total                    4.561              5.592             48.215
 Electronic               0.000              0.000              1.377
 Translational            0.889              2.981             35.068
 Rotational               0.592              1.987             11.625
 Vibrational              3.080              0.624              0.144

 Normal termination of Gaussian 16 at Fri Aug 22 16:19:54 2025.
