 Gaussian 16, Revision C.01,
 Gaussian 16:  ES64L-G16RevC.01  3-Jul-2019

 -----------------------------------------
 # sp b3lyp/6-311g** Force nosymm scf=(qc)
 -----------------------------------------

 -------------------
 Title Card Required
 -------------------
 Symbolic Z-matrix:
 Charge =  0 Multiplicity = 2

                          Input orientation:
 ---------------------------------------------------------------------
 Center     Atomic      Atomic             Coordinates (Angstroms)
 Number     Number       Type             X           Y           Z
 ---------------------------------------------------------------------
      1          1           0        0.000000    0.000000    0.000000
      2          1           0       -3.900000    0.000000    0.000000
      3          9           0        2.550000    0.000000    0.000000
 ---------------------------------------------------------------------

 SCF Done:  E(UB3LYP) =  -100.766261756     a.u. after   22 cycles

 Alpha  occ. eigenvalues --  -24.72017  -1.18218  -0.51124  -0.42944  -0.42944
 Alpha  occ. eigenvalues --   -0.32723
 Alpha virt. eigenvalues --   -0.09872   0.23492   0.35338   0.89729   0.93465
 Alpha virt. eigenvalues --    0.93465   1.06077   1.24777   1.24777   1.24799
 Alpha virt. eigenvalues --    1.40891   1.40891   1.44525   2.14136   2.37742

  Beta  occ. eigenvalues --  -24.69150  -1.10051  -0.40085  -0.40085  -0.35154
  Beta virt. eigenvalues --   -0.23518  -0.06129   0.23741   0.38110   0.94848
  Beta virt. eigenvalues --    0.94848   0.96460   1.08552   1.22243   1.22243
  Beta virt. eigenvalues --    1.28364   1.46440   1.46613   1.46613   2.12576

 Mulliken charges and spin densities:
               1          2
     1  H    0.083290  -0.905484
     2  H    0.000299   0.999230
     3  F   -0.083589   0.906254
 Sum of Mulliken charges =  -0.00000   1.00000

 Dipole moment (field-independent basis, Debye):
    X=             -1.0914    Y=             -0.0000    Z=             -0.0000  Tot=              1.0914
 Quadrupole moment (field-independent basis, Debye-Ang):
   XX=             -9.2580   YY=             -7.5726   ZZ=             -7.5726
   XY=             -0.0000   XZ=             -0.0000   YZ=              0.0000

  Exact polarizability:      30.277       0.000       2.026       0.000      -0.000       2.026
 Approx polarizability:      38.069       0.000       1.921       0.000      -0.000       1.921

 ******    2 imaginary frequencies (negative Signs) ******

                      1                      2                      3
                      A                      A                      A
 Frequencies --   -580.4963               -76.5628               225.2746
 Red. masses --      1.0565                 1.0551                 1.0238
 Frc consts  --      0.2098                 0.0036                 0.0306
 IR Inten    --     76.2939                 0.0508                 6.7733

                      4
                      A
 Frequencies --    225.2746
 Red. masses --      1.0238
 Frc consts  --      0.0306
 IR Inten    --      6.7733

 - Thermochemistry -
 -------------------
 Temperature   298.150 Kelvin.  Pressure   1.00000 Atm.
 Atom     1 has atomic number  1 and mass   1.00783

 Molecular mass:    21.01405 amu.
 Principal axes and moments of inertia in atomic units:
                           1         2         3
     Eigenvalues --     0.00000 159.14915 159.14915
           X            1.00000  -0.00000   0.00000
           Y            0.00000   1.00000   0.00000
           Z            0.00000   0.00000   1.00000
 This molecule is a prolate symmetric top.
 Rotational symmetry number  1.
 Rotational temperature (Kelvin)      0.54423
 Rotational constant (GHZ):          11.339936
    2 imaginary frequencies ignored.
 Zero-point vibrational energy       2694.9 (Joules/Mol)
                                    0.64409 (Kcal/Mol)
 Warning -- explicit consideration of   2 degrees of freedom as
           vibrations may cause significant error
 Vibrational temperatures:    324.12   324.12
          (Kelvin)

 Zero-point correction=                           0.001026 (Hartree/Particle)
 Thermal correction to Energy=                    0.004431
 Thermal correction to Enthalpy=                  0.005375
 Thermal correction to Gibbs Free Energy=        -0.020660
 Sum of electronic and zero-point Energies=           -100.765235
 Sum of electronic and thermal Energies=              -100.761831
 Sum of electronic and thermal Enthalpies=            -100.760886
 Sum of electronic and thermal Free Energies=         -100.786922

                     E (Thermal)             CV                S
                      KCal/Mol        Cal/Mol-Kelvin    Cal/Mol-Kelvin
 Total                    2.781              8.573             54.796
 Electronic               0.000              0.000              1.377
 Translational            0.889              2.981             35.068
 Rotational               0.592              1.987             14.518
 Vibrational              1.299              3.605              3.833
 Vibration     1          0.650              1.803              1.916
 Vibration     2          0.650              1.803              1.916

 Normal termination of Gaussian 16 at Fri Aug 22 17:55:42 2025.
