 Gaussian 16, Revision C.01,
 Gaussian 16:  ES64L-G16RevC.01  3-Jul-2019

 -----------------------------------------
 # sp b3lyp/6-311g** Force nosymm scf=(qc)
 -----------------------------------------

 -------------------
 Title Card Required
 -------------------
 Symbolic Z-matrix:
 Charge =  0 Multiplicity = 2

                          Input orientation:
 ---------------------------------------------------------------------
 Center     Atomic      Atomic             Coordinates (Angstroms)
 Number     Number       Type             X           Y           Z
 ---------------------------------------------------------------------
      1          1           0        0.000000    0.000000    0.000000
      2          1           0       -1.700000    0.000000    0.000000
      3          9           0        3.900000    0.000000    0.000000
 ---------------------------------------------------------------------

 SCF Done:  E(UB3LYP) =  -100.794749954     a.u. after   25 cycles

 Alpha  occ. eigenvalues --  -24.76193  -1.22096  -0.55300  -0.46472  -0.46457
 Alpha  occ. eigenvalues --   -0.33072
 Alpha virt. eigenvalues --   -0.10559   0.25737   0.31004   0.86063   0.90941
 Alpha virt. eigenvalues --    0.91331   1.00902   1.07641   1.23844   1.23845
 Alpha virt. eigenvalues --    1.38284   1.38287   1.67647   2.16900   2.41397

  Beta  occ. eigenvalues --  -24.73038  -1.13024  -0.43312  -0.43294  -0.33063
  Beta virt. eigenvalues --   -0.25952  -0.10589   0.25726   0.31026   0.92442
  Beta virt. eigenvalues --    0.92802   0.95531   1.05041   1.07636   1.23841
  Beta virt. eigenvalues --    1.23844   1.38275   1.38276   1.67658   2.17007

 Mulliken charges and spin densities:
               1          2
     1  H    0.000835  -0.612190
     2  H   -0.001646   0.612182
     3  F    0.000811   1.000008
 Sum of Mulliken charges =   0.00000   1.00000

 Dipole moment (field-independent basis, Debye):
    X=              0.0227    Y=             -0.0000    Z=              0.0000  Tot=              0.0227
 Quadrupole moment (field-independent basis, Debye-Ang):
   XX=             -6.6098   YY=             -7.7581   ZZ=             -6.9133
   XY=             -0.0000   XZ=              0.0001   YZ=             -0.0921

  Exact polarizability:      23.749      -0.000       2.024       0.000      -0.049       2.477
 Approx polarizability:      37.735      -0.000       1.986       0.000      -0.062       2.556

 ******    2 imaginary frequencies (negative Signs) ******

                      1                      2                      3
                      A                      A                      A
 Frequencies --  -1906.6100               -53.8170               908.7875
 Red. masses --      1.0078                 1.1085                 1.0110
 Frc consts  --      2.1585                 0.0019                 0.4919
 IR Inten    --      0.0080                 0.0408                 0.0014

                      4
                      A
 Frequencies --    909.4708
 Red. masses --      1.0110
 Frc consts  --      0.4927
 IR Inten    --      0.0007

 - Thermochemistry -
 -------------------
 Temperature   298.150 Kelvin.  Pressure   1.00000 Atm.
 Atom     1 has atomic number  1 and mass   1.00783

 Molecular mass:    21.01405 amu.
 Principal axes and moments of inertia in atomic units:
                           1         2         3
     Eigenvalues --     0.00000 152.02805 152.02805
           X            1.00000  -0.00000   0.00000
           Y            0.00000   1.00000   0.00000
           Z            0.00000   0.00000   1.00000
 This molecule is a prolate symmetric top.
 Rotational symmetry number  1.
 Rotational temperature (Kelvin)      0.56972
 Rotational constant (GHZ):          11.871106
    2 imaginary frequencies ignored.
 Zero-point vibrational energy      10875.6 (Joules/Mol)
                                    2.59933 (Kcal/Mol)
 Vibrational temperatures:   1307.54  1308.53
          (Kelvin)

 Zero-point correction=                           0.004142 (Hartree/Particle)
 Thermal correction to Energy=                    0.006607
 Thermal correction to Enthalpy=                  0.007551
 Thermal correction to Gibbs Free Energy=        -0.016748
 Sum of electronic and zero-point Energies=           -100.790608
 Sum of electronic and thermal Energies=              -100.788143
 Sum of electronic and thermal Enthalpies=            -100.787199
 Sum of electronic and thermal Free Energies=         -100.811498

                     E (Thermal)             CV                S
                      KCal/Mol        Cal/Mol-Kelvin    Cal/Mol-Kelvin
 Total                    4.146              5.943             51.142
 Electronic               0.000              0.000              1.377
 Translational            0.889              2.981             35.068
 Rotational               0.592              1.987             14.428
 Vibrational              2.665              0.975              0.269

 Normal termination of Gaussian 16 at Sat Aug 23 01:19:59 2025.
