 Gaussian 16, Revision C.01,
 Gaussian 16:  ES64L-G16RevC.01  3-Jul-2019

 -----------------------------------------
 # sp b3lyp/6-311g** Force nosymm scf=(qc)
 -----------------------------------------

 -------------------
 Title Card Required
 -------------------
 Symbolic Z-matrix:
 Charge =  0 Multiplicity = 2

                          Input orientation:
 ---------------------------------------------------------------------
 Center     Atomic      Atomic             Coordinates (Angstroms)
 Number     Number       Type             X           Y           Z
 ---------------------------------------------------------------------
      1          1           0        0.000000    0.000000    0.000000
      2          1           0       -2.500000    0.000000    0.000000
      3          9           0        1.000000    0.000000    0.000000
 ---------------------------------------------------------------------

 SCF Done:  E(UB3LYP) =  -100.966563055     a.u. after    6 cycles

 Alpha  occ. eigenvalues --  -24.64053  -1.15952  -0.51610  -0.38690  -0.38690
 Alpha  occ. eigenvalues --   -0.35002
 Alpha virt. eigenvalues --    0.01744   0.25101   0.34267   0.94145   0.94145
 Alpha virt. eigenvalues --    0.98542   1.19729   1.22546   1.22546   1.36046
 Alpha virt. eigenvalues --    1.36046   1.37906   1.90933   2.13564   2.34462

  Beta  occ. eigenvalues --  -24.64031  -1.15896  -0.51512  -0.38670  -0.38670
  Beta virt. eigenvalues --   -0.09949   0.03537   0.34061   0.37331   0.94147
  Beta virt. eigenvalues --    0.94147   0.98626   1.28970   1.36006   1.36006
  Beta virt. eigenvalues --    1.44166   1.44166   1.50320   1.90972   2.33797

 Mulliken charges and spin densities:
               1          2
     1  H    0.314831   0.002906
     2  H    0.007097   0.990162
     3  F   -0.321928   0.006931
 Sum of Mulliken charges =   0.00000   1.00000

 Dipole moment (field-independent basis, Debye):
    X=             -2.1178    Y=             -0.0000    Z=              0.0000  Tot=              2.1178
 Quadrupole moment (field-independent basis, Debye-Ang):
   XX=             -7.9770   YY=             -6.9547   ZZ=             -6.9547
   XY=             -0.0000   XZ=              0.0000   YZ=              0.0000

  Exact polarizability:       8.862      -0.000       2.426       0.000      -0.000       2.426
 Approx polarizability:      10.096      -0.000       2.403       0.000      -0.000       2.403

 ******    1 imaginary frequencies (negative Signs) ******

                      1                      2                      3
                      A                      A                      A
 Frequencies --    -89.9111               964.2743               964.2743
 Red. masses --      1.0528                 1.0317                 1.0317
 Frc consts  --      0.0050                 0.5652                 0.5652
 IR Inten    --      1.0583               154.2332               154.2332

                      4
                      A
 Frequencies --   3013.1974
 Red. masses --      1.0587
 Frc consts  --      5.6635
 IR Inten    --    125.8721

 - Thermochemistry -
 -------------------
 Temperature   298.150 Kelvin.  Pressure   1.00000 Atm.
 Atom     1 has atomic number  1 and mass   1.00783

 Molecular mass:    21.01405 amu.
 Principal axes and moments of inertia in atomic units:
                           1         2         3
     Eigenvalues --     0.00000  44.19157  44.19157
           X            1.00000  -0.00000   0.00000
           Y            0.00000   1.00000   0.00000
           Z            0.00000   0.00000   1.00000
 This molecule is a prolate symmetric top.
 Rotational symmetry number  1.
 Rotational temperature (Kelvin)      1.95996
 Rotational constant (GHZ):          40.839035
    1 imaginary frequencies ignored.
 Zero-point vibrational energy      29558.2 (Joules/Mol)
                                    7.06458 (Kcal/Mol)
 Vibrational temperatures:   1387.38  1387.38  4335.32
          (Kelvin)

 Zero-point correction=                           0.011258 (Hartree/Particle)
 Thermal correction to Energy=                    0.013703
 Thermal correction to Enthalpy=                  0.014647
 Thermal correction to Gibbs Free Energy=        -0.008460
 Sum of electronic and zero-point Energies=           -100.955305
 Sum of electronic and thermal Energies=              -100.952860
 Sum of electronic and thermal Enthalpies=            -100.951916
 Sum of electronic and thermal Free Energies=         -100.975023

                     E (Thermal)             CV                S
                      KCal/Mol        Cal/Mol-Kelvin    Cal/Mol-Kelvin
 Total                    8.599              5.804             48.634
 Electronic               0.000              0.000              1.377
 Translational            0.889              2.981             35.068
 Rotational               0.592              1.987             11.972
 Vibrational              7.118              0.836              0.216

 Normal termination of Gaussian 16 at Fri Aug 22 16:00:53 2025.
