 Gaussian 16, Revision C.01,
 Gaussian 16:  ES64L-G16RevC.01  3-Jul-2019

 -----------------------------------------
 # sp b3lyp/6-311g** Force nosymm scf=(qc)
 -----------------------------------------

 -------------------
 Title Card Required
 -------------------
 Symbolic Z-matrix:
 Charge =  0 Multiplicity = 2

                          Input orientation:
 ---------------------------------------------------------------------
 Center     Atomic      Atomic             Coordinates (Angstroms)
 Number     Number       Type             X           Y           Z
 ---------------------------------------------------------------------
      1          1           0        0.000000    0.000000    0.000000
      2          1           0       -1.850000    0.000000    0.000000
      3          9           0        2.450000    0.000000    0.000000
 ---------------------------------------------------------------------

 SCF Done:  E(UB3LYP) =  -100.790580196     a.u. after   18 cycles

 Alpha  occ. eigenvalues --  -24.71783  -1.17986  -0.50904  -0.42735  -0.42735
 Alpha  occ. eigenvalues --   -0.35314
 Alpha virt. eigenvalues --   -0.12718   0.24509   0.31513   0.89234   0.93588
 Alpha virt. eigenvalues --    0.93588   1.04489   1.17879   1.22422   1.22422
 Alpha virt. eigenvalues --    1.34824   1.34824   1.56300   2.11925   2.36986

  Beta  occ. eigenvalues --  -24.68946  -1.09911  -0.39907  -0.39907  -0.35317
  Beta virt. eigenvalues --   -0.23667  -0.11839   0.26513   0.31071   0.94943
  Beta virt. eigenvalues --    0.94943   0.95412   1.07453   1.21436   1.22695
  Beta virt. eigenvalues --    1.22695   1.36025   1.36025   1.56866   2.12748

 Mulliken charges and spin densities:
               1          2
     1  H    0.051841  -0.688165
     2  H    0.036362   0.791801
     3  F   -0.088202   0.896364
 Sum of Mulliken charges =  -0.00000   1.00000

 Dipole moment (field-independent basis, Debye):
    X=             -1.4208    Y=             -0.0000    Z=             -0.0000  Tot=              1.4208
 Quadrupole moment (field-independent basis, Debye-Ang):
   XX=             -7.9374   YY=             -7.6673   ZZ=             -7.6673
   XY=              0.0000   XZ=              0.0000   YZ=             -0.0000

  Exact polarizability:      61.477      -0.000       2.015      -0.000       0.000       2.015
 Approx polarizability:      71.382       0.000       1.946       0.000       0.000       1.946

 ******    2 imaginary frequencies (negative Signs) ******

                      1                      2                      3
                      A                      A                      A
 Frequencies --  -1665.1773              -401.8987               702.0885
 Red. masses --      1.0088                 1.1073                 1.0149
 Frc consts  --      1.6481                 0.1054                 0.2948
 IR Inten    --    140.2812                51.8997                 1.0976

                      4
                      A
 Frequencies --    702.0885
 Red. masses --      1.0149
 Frc consts  --      0.2948
 IR Inten    --      1.0976

 - Thermochemistry -
 -------------------
 Temperature   298.150 Kelvin.  Pressure   1.00000 Atm.
 Atom     1 has atomic number  1 and mass   1.00783

 Molecular mass:    21.01405 amu.
 Principal axes and moments of inertia in atomic units:
                           1         2         3
     Eigenvalues --     0.00000  80.28431  80.28431
           X            1.00000  -0.00000   0.00000
           Y            0.00000   1.00000   0.00000
           Z            0.00000   0.00000   1.00000
 This molecule is a prolate symmetric top.
 Rotational symmetry number  1.
 Rotational temperature (Kelvin)      1.07884
 Rotational constant (GHZ):          22.479375
    2 imaginary frequencies ignored.
 Zero-point vibrational energy       8398.8 (Joules/Mol)
                                    2.00737 (Kcal/Mol)
 Vibrational temperatures:   1010.15  1010.15
          (Kelvin)

 Zero-point correction=                           0.003199 (Hartree/Particle)
 Thermal correction to Energy=                    0.005783
 Thermal correction to Enthalpy=                  0.006727
 Thermal correction to Gibbs Free Energy=        -0.017130
 Sum of electronic and zero-point Energies=           -100.787381
 Sum of electronic and thermal Energies=              -100.784797
 Sum of electronic and thermal Enthalpies=            -100.783853
 Sum of electronic and thermal Free Energies=         -100.807710

                     E (Thermal)             CV                S
                      KCal/Mol        Cal/Mol-Kelvin    Cal/Mol-Kelvin
 Total                    3.629              6.618             50.211
 Electronic               0.000              0.000              1.377
 Translational            0.889              2.981             35.068
 Rotational               0.592              1.987             13.159
 Vibrational              2.148              1.650              0.607

 Normal termination of Gaussian 16 at Fri Aug 22 17:38:10 2025.
