 Gaussian 16, Revision C.01,
 Gaussian 16:  ES64L-G16RevC.01  3-Jul-2019

 -----------------------------------------
 # sp b3lyp/6-311g** Force nosymm scf=(qc)
 -----------------------------------------

 -------------------
 Title Card Required
 -------------------
 Symbolic Z-matrix:
 Charge =  0 Multiplicity = 2

                          Input orientation:
 ---------------------------------------------------------------------
 Center     Atomic      Atomic             Coordinates (Angstroms)
 Number     Number       Type             X           Y           Z
 ---------------------------------------------------------------------
      1          1           0        0.000000    0.000000    0.000000
      2          1           0       -1.350000    0.000000    0.000000
      3          9           0        2.000000    0.000000    0.000000
 ---------------------------------------------------------------------

 SCF Done:  E(UB3LYP) =  -100.855157136     a.u. after   14 cycles

 Alpha  occ. eigenvalues --  -24.70951  -1.17282  -0.50588  -0.42124  -0.42124
 Alpha  occ. eigenvalues --   -0.38447
 Alpha virt. eigenvalues --   -0.07962   0.22082   0.32059   0.87027   0.93037
 Alpha virt. eigenvalues --    0.93037   1.04045   1.13337   1.13337   1.32720
 Alpha virt. eigenvalues --    1.44376   1.44376   1.94382   2.24102   2.49596

  Beta  occ. eigenvalues --  -24.68267  -1.09711  -0.39463  -0.39463  -0.37996
  Beta virt. eigenvalues --   -0.24236  -0.06198   0.23545   0.32323   0.92266
  Beta virt. eigenvalues --    0.94163   0.94163   1.07652   1.15002   1.15002
  Beta virt. eigenvalues --    1.36578   1.45346   1.45346   1.96160   2.25324

 Mulliken charges and spin densities:
               1          2
     1  H    0.064278  -0.220009
     2  H    0.058811   0.377862
     3  F   -0.123089   0.842147
 Sum of Mulliken charges =   0.00000   1.00000

 Dipole moment (field-independent basis, Debye):
    X=             -1.5923    Y=              0.0000    Z=             -0.0000  Tot=              1.5923
 Quadrupole moment (field-independent basis, Debye-Ang):
   XX=             -7.2880   YY=             -7.4703   ZZ=             -7.4703
   XY=              0.0000   XZ=             -0.0000   YZ=              0.0000

  Exact polarizability:      48.070      -0.000       2.150       0.000      -0.000       2.150
 Approx polarizability:      73.708      -0.000       2.122       0.000      -0.000       2.122

 ******    2 imaginary frequencies (negative Signs) ******

                      1                      2                      3
                      A                      A                      A
 Frequencies --  -1980.4366              -369.8641              1243.4464
 Red. masses --      1.0130                 1.1024                 1.0139
 Frc consts  --      2.3408                 0.0888                 0.9236
 IR Inten    --   1106.9981                 5.6852                 0.6060

                      4
                      A
 Frequencies --   1243.4464
 Red. masses --      1.0139
 Frc consts  --      0.9236
 IR Inten    --      0.6060

 - Thermochemistry -
 -------------------
 Temperature   298.150 Kelvin.  Pressure   1.00000 Atm.
 Atom     1 has atomic number  1 and mass   1.00783

 Molecular mass:    21.01405 amu.
 Principal axes and moments of inertia in atomic units:
                           1         2         3
     Eigenvalues --     0.00000  49.84547  49.84547
           X            1.00000  -0.00000   0.00000
           Y            0.00000   1.00000   0.00000
           Z            0.00000   0.00000   1.00000
 This molecule is a prolate symmetric top.
 Rotational symmetry number  1.
 Rotational temperature (Kelvin)      1.73765
 Rotational constant (GHZ):          36.206727
    2 imaginary frequencies ignored.
 Zero-point vibrational energy      14874.9 (Joules/Mol)
                                    3.55519 (Kcal/Mol)
 Vibrational temperatures:   1789.04  1789.04
          (Kelvin)

 Zero-point correction=                           0.005666 (Hartree/Particle)
 Thermal correction to Energy=                    0.008054
 Thermal correction to Enthalpy=                  0.008998
 Thermal correction to Gibbs Free Energy=        -0.014153
 Sum of electronic and zero-point Energies=           -100.849492
 Sum of electronic and thermal Energies=              -100.847103
 Sum of electronic and thermal Enthalpies=            -100.846159
 Sum of electronic and thermal Free Energies=         -100.869310

                     E (Thermal)             CV                S
                      KCal/Mol        Cal/Mol-Kelvin    Cal/Mol-Kelvin
 Total                    5.054              5.324             48.726
 Electronic               0.000              0.000              1.377
 Translational            0.889              2.981             35.068
 Rotational               0.592              1.987             12.211
 Vibrational              3.573              0.356              0.069

 Normal termination of Gaussian 16 at Fri Aug 22 16:55:54 2025.
