 Gaussian 16, Revision C.01,
 Gaussian 16:  ES64L-G16RevC.01  3-Jul-2019

 -----------------------------------------
 # sp b3lyp/6-311g** Force nosymm scf=(qc)
 -----------------------------------------

 -------------------
 Title Card Required
 -------------------
 Symbolic Z-matrix:
 Charge =  0 Multiplicity = 2

                          Input orientation:
 ---------------------------------------------------------------------
 Center     Atomic      Atomic             Coordinates (Angstroms)
 Number     Number       Type             X           Y           Z
 ---------------------------------------------------------------------
      1          1           0        0.000000    0.000000    0.000000
      2          1           0       -4.000000    0.000000    0.000000
      3          9           0        3.400000    0.000000    0.000000
 ---------------------------------------------------------------------

 SCF Done:  E(UB3LYP) =  -100.759085152     a.u. after   24 cycles

 Alpha  occ. eigenvalues --  -24.75191  -1.21169  -0.54313  -0.45602  -0.45602
 Alpha  occ. eigenvalues --   -0.32312
 Alpha virt. eigenvalues --   -0.06283   0.24099   0.37155   0.87907   0.91602
 Alpha virt. eigenvalues --    0.91602   1.02097   1.25182   1.25182   1.25201
 Alpha virt. eigenvalues --    1.46838   1.46838   1.46991   2.14494   2.42557

  Beta  occ. eigenvalues --  -24.72089  -1.12260  -0.42494  -0.42494  -0.32941
  Beta virt. eigenvalues --   -0.25380  -0.05821   0.23805   0.38181   0.93088
  Beta virt. eigenvalues --    0.93088   0.96972   1.06060   1.24463   1.24463
  Beta virt. eigenvalues --    1.24474   1.46721   1.46809   1.46809   2.14682

 Mulliken charges and spin densities:
               1          2
     1  H    0.015127  -0.982746
     2  H    0.000058   0.999382
     3  F   -0.015185   0.983364
 Sum of Mulliken charges =  -0.00000   1.00000

 Dipole moment (field-independent basis, Debye):
    X=             -0.2665    Y=              0.0000    Z=              0.0000  Tot=              0.2665
 Quadrupole moment (field-independent basis, Debye-Ang):
   XX=             -7.5893   YY=             -7.6155   ZZ=             -7.6155
   XY=              0.0000   XZ=              0.0000   YZ=              0.0000

  Exact polarizability:      25.173       0.000       2.034       0.000       0.000       2.034
 Approx polarizability:      20.964       0.000       1.933       0.000       0.000       1.933

 ******    2 imaginary frequencies (negative Signs) ******

                      1                      2                      3
                      A                      A                      A
 Frequencies --   -236.2706               -68.0740                69.5957
 Red. masses --      1.0487                 1.0630                 1.0200
 Frc consts  --      0.0345                 0.0029                 0.0029
 IR Inten    --     15.6879                 0.1509                 0.2134

                      4
                      A
 Frequencies --     69.5957
 Red. masses --      1.0200
 Frc consts  --      0.0029
 IR Inten    --      0.2134

 - Thermochemistry -
 -------------------
 Temperature   298.150 Kelvin.  Pressure   1.00000 Atm.
 Atom     1 has atomic number  1 and mass   1.00783

 Molecular mass:    21.01405 amu.
 Principal axes and moments of inertia in atomic units:
                           1         2         3
     Eigenvalues --     0.00000 218.55338 218.55338
           X            1.00000  -0.00000   0.00000
           Y            0.00000   1.00000   0.00000
           Z            0.00000   0.00000   1.00000
 This molecule is a prolate symmetric top.
 Rotational symmetry number  1.
 Rotational temperature (Kelvin)      0.39631
 Rotational constant (GHZ):           8.257668
    2 imaginary frequencies ignored.
 Zero-point vibrational energy        832.5 (Joules/Mol)
                                    0.19898 (Kcal/Mol)
 Warning -- explicit consideration of   2 degrees of freedom as
           vibrations may cause significant error
 Vibrational temperatures:    100.13   100.13
          (Kelvin)

 Zero-point correction=                           0.000317 (Hartree/Particle)
 Thermal correction to Energy=                    0.004267
 Thermal correction to Enthalpy=                  0.005211
 Thermal correction to Gibbs Free Energy=        -0.023261
 Sum of electronic and zero-point Energies=           -100.758768
 Sum of electronic and thermal Energies=              -100.754819
 Sum of electronic and thermal Enthalpies=            -100.753874
 Sum of electronic and thermal Free Energies=         -100.782346

                     E (Thermal)             CV                S
                      KCal/Mol        Cal/Mol-Kelvin    Cal/Mol-Kelvin
 Total                    2.677              8.905             59.924
 Electronic               0.000              0.000              1.377
 Translational            0.889              2.981             35.068
 Rotational               0.592              1.987             15.149
 Vibrational              1.196              3.937              8.330
 Vibration     1          0.598              1.969              4.165
 Vibration     2          0.598              1.969              4.165

 Normal termination of Gaussian 16 at Fri Aug 22 21:19:17 2025.
