 Gaussian 16, Revision C.01,
 Gaussian 16:  ES64L-G16RevC.01  3-Jul-2019

 -----------------------------------------
 # sp b3lyp/6-311g** Force nosymm scf=(qc)
 -----------------------------------------

 -------------------
 Title Card Required
 -------------------
 Symbolic Z-matrix:
 Charge =  0 Multiplicity = 2

                          Input orientation:
 ---------------------------------------------------------------------
 Center     Atomic      Atomic             Coordinates (Angstroms)
 Number     Number       Type             X           Y           Z
 ---------------------------------------------------------------------
      1          1           0        0.000000    0.000000    0.000000
      2          1           0       -0.550000    0.000000    0.000000
      3          9           0        3.800000    0.000000    0.000000
 ---------------------------------------------------------------------

 SCF Done:  E(UB3LYP) =  -100.894018232     a.u. after   19 cycles

 Alpha  occ. eigenvalues --  -24.76217  -1.22095  -0.55298  -0.47912  -0.46468
 Alpha  occ. eigenvalues --   -0.46453
 Alpha virt. eigenvalues --    0.09202   0.18589   0.53709   0.86088   0.90964
 Alpha virt. eigenvalues --    0.92366   1.01487   1.11052   1.11055   1.61081
 Alpha virt. eigenvalues --    1.81773   1.96176   1.96179   2.36458   3.64925

  Beta  occ. eigenvalues --  -24.73060  -1.13018  -0.47908  -0.43306  -0.43289
  Beta virt. eigenvalues --   -0.25943   0.09215   0.18594   0.53759   0.92465
  Beta virt. eigenvalues --    0.93860   0.95553   1.05577   1.11052   1.11055
  Beta virt. eigenvalues --    1.61086   1.81789   1.96176   1.96179   2.36459

 Mulliken charges and spin densities:
               1          2
     1  H   -0.001113  -0.000345
     2  H   -0.001334   0.000077
     3  F    0.002448   1.000268
 Sum of Mulliken charges =   0.00000   1.00000

 Dipole moment (field-independent basis, Debye):
    X=              0.0304    Y=             -0.0000    Z=              0.0000  Tot=              0.0304
 Quadrupole moment (field-independent basis, Debye-Ang):
   XX=             -6.1877   YY=             -6.6628   ZZ=             -5.7983
   XY=             -0.0000   XZ=             -0.0000   YZ=             -0.0001

  Exact polarizability:       5.804       0.000       1.834      -0.000      -0.000       2.299
 Approx polarizability:       6.241       0.000       1.916      -0.000      -0.000       2.498

 ******    3 imaginary frequencies (negative Signs) ******

                      1                      2                      3
                      A                      A                      A
 Frequencies --  -3699.6912             -3699.2602               -51.2785
 Red. masses --      1.0083                 1.0083                 1.1085
 Frc consts  --      8.1314                 8.1295                 0.0017
 IR Inten    --      0.0012                 0.0010                 0.0806

                      4
                      A
 Frequencies --   8343.2305
 Red. masses --      1.0078
 Frc consts  --     41.3337
 IR Inten    --      0.0326

 - Thermochemistry -
 -------------------
 Temperature   298.150 Kelvin.  Pressure   1.00000 Atm.
 Atom     1 has atomic number  1 and mass   1.00783

 Molecular mass:    21.01405 amu.
 Principal axes and moments of inertia in atomic units:
                           1         2         3
     Eigenvalues --     0.00000 108.60694 108.60694
           X            1.00000  -0.00000   0.00000
           Y            0.00000   1.00000   0.00000
           Z            0.00000   0.00000   1.00000
 This molecule is a prolate symmetric top.
 Rotational symmetry number  1.
 Rotational temperature (Kelvin)      0.79750
 Rotational constant (GHZ):          16.617181
    3 imaginary frequencies ignored.
 Zero-point vibrational energy      49903.6 (Joules/Mol)
                                   11.92725 (Kcal/Mol)
 Vibrational temperatures:  12004.05
          (Kelvin)

 Zero-point correction=                           0.019007 (Hartree/Particle)
 Thermal correction to Energy=                    0.021368
 Thermal correction to Enthalpy=                  0.022312
 Thermal correction to Gibbs Free Energy=        -0.001542
 Sum of electronic and zero-point Energies=           -100.875011
 Sum of electronic and thermal Energies=              -100.872650
 Sum of electronic and thermal Enthalpies=            -100.871706
 Sum of electronic and thermal Free Energies=         -100.895560

                     E (Thermal)             CV                S
                      KCal/Mol        Cal/Mol-Kelvin    Cal/Mol-Kelvin
 Total                   13.408              4.968             50.205
 Electronic               0.000              0.000              1.377
 Translational            0.889              2.981             35.068
 Rotational               0.592              1.987             13.759
 Vibrational             11.927              0.000              0.000

 Normal termination of Gaussian 16 at Sat Aug 23 00:29:07 2025.
