 Gaussian 16, Revision C.01,
 Gaussian 16:  ES64L-G16RevC.01  3-Jul-2019

 -----------------------------------------
 # sp b3lyp/6-311g** Force nosymm scf=(qc)
 -----------------------------------------

 -------------------
 Title Card Required
 -------------------
 Symbolic Z-matrix:
 Charge =  0 Multiplicity = 2

                          Input orientation:
 ---------------------------------------------------------------------
 Center     Atomic      Atomic             Coordinates (Angstroms)
 Number     Number       Type             X           Y           Z
 ---------------------------------------------------------------------
      1          1           0        0.000000    0.000000    0.000000
      2          1           0       -3.600000    0.000000    0.000000
      3          9           0        3.550000    0.000000    0.000000
 ---------------------------------------------------------------------

 SCF Done:  E(UB3LYP) =  -100.758967349     a.u. after   33 cycles

 Alpha  occ. eigenvalues --  -24.75462  -1.21420  -0.54585  -0.45830  -0.45830
 Alpha  occ. eigenvalues --   -0.32315
 Alpha virt. eigenvalues --   -0.06783   0.24229   0.37181   0.87447   0.91434
 Alpha virt. eigenvalues --    0.91434   1.01694   1.25186   1.25186   1.25291
 Alpha virt. eigenvalues --    1.45541   1.45541   1.45544   2.14901   2.41515

  Beta  occ. eigenvalues --  -24.72343  -1.12457  -0.42704  -0.42704  -0.32764
  Beta virt. eigenvalues --   -0.25522  -0.06313   0.23994   0.38040   0.92925
  Beta virt. eigenvalues --    0.92925   0.96615   1.05720   1.24674   1.24674
  Beta virt. eigenvalues --    1.24761   1.46088   1.46303   1.46303   2.15061

 Mulliken charges and spin densities:
               1          2
     1  H    0.009963  -0.987248
     2  H    0.000126   0.998345
     3  F   -0.010089   0.988903
 Sum of Mulliken charges =  -0.00000   1.00000

 Dipole moment (field-independent basis, Debye):
    X=             -0.1865    Y=             -0.0000    Z=              0.0000  Tot=              0.1865
 Quadrupole moment (field-independent basis, Debye-Ang):
   XX=             -7.3352   YY=             -7.6208   ZZ=             -7.6208
   XY=             -0.0000   XZ=              0.0000   YZ=             -0.0000

  Exact polarizability:      22.068      -0.000       2.037      -0.000       0.000       2.037
 Approx polarizability:      17.165      -0.000       1.934       0.000       0.000       1.934

 ******    2 imaginary frequencies (negative Signs) ******

                      1                      2                      3
                      A                      A                      A
 Frequencies --   -228.1280               -94.4308                66.1805
 Red. masses --      1.0301                 1.0827                 1.0181
 Frc consts  --      0.0316                 0.0057                 0.0026
 IR Inten    --      8.9216                 0.8654                 0.0859

                      4
                      A
 Frequencies --     66.1806
 Red. masses --      1.0181
 Frc consts  --      0.0026
 IR Inten    --      0.0859

 - Thermochemistry -
 -------------------
 Temperature   298.150 Kelvin.  Pressure   1.00000 Atm.
 Atom     1 has atomic number  1 and mass   1.00783

 Molecular mass:    21.01405 amu.
 Principal axes and moments of inertia in atomic units:
                           1         2         3
     Eigenvalues --     0.00000 209.58505 209.58505
           X            1.00000  -0.00000   0.00000
           Y            0.00000   1.00000   0.00000
           Z            0.00000   0.00000   1.00000
 This molecule is a prolate symmetric top.
 Rotational symmetry number  1.
 Rotational temperature (Kelvin)      0.41326
 Rotational constant (GHZ):           8.611021
    2 imaginary frequencies ignored.
 Zero-point vibrational energy        791.7 (Joules/Mol)
                                    0.18922 (Kcal/Mol)
 Warning -- explicit consideration of   2 degrees of freedom as
           vibrations may cause significant error
 Vibrational temperatures:     95.22    95.22
          (Kelvin)

 Zero-point correction=                           0.000302 (Hartree/Particle)
 Thermal correction to Energy=                    0.004265
 Thermal correction to Enthalpy=                  0.005209
 Thermal correction to Gibbs Free Energy=        -0.023317
 Sum of electronic and zero-point Energies=           -100.758666
 Sum of electronic and thermal Energies=              -100.754702
 Sum of electronic and thermal Enthalpies=            -100.753758
 Sum of electronic and thermal Free Energies=         -100.782285

                     E (Thermal)             CV                S
                      KCal/Mol        Cal/Mol-Kelvin    Cal/Mol-Kelvin
 Total                    2.676              8.909             60.039
 Electronic               0.000              0.000              1.377
 Translational            0.889              2.981             35.068
 Rotational               0.592              1.987             15.066
 Vibrational              1.195              3.941              8.528
 Vibration     1          0.598              1.970              4.264
 Vibration     2          0.598              1.970              4.264

 Normal termination of Gaussian 16 at Fri Aug 22 22:41:34 2025.
