 Gaussian 16, Revision C.01,
 Gaussian 16:  ES64L-G16RevC.01  3-Jul-2019

 -----------------------------------------
 # sp b3lyp/6-311g** Force nosymm scf=(qc)
 -----------------------------------------

 -------------------
 Title Card Required
 -------------------
 Symbolic Z-matrix:
 Charge =  0 Multiplicity = 2

                          Input orientation:
 ---------------------------------------------------------------------
 Center     Atomic      Atomic             Coordinates (Angstroms)
 Number     Number       Type             X           Y           Z
 ---------------------------------------------------------------------
      1          1           0        0.000000    0.000000    0.000000
      2          1           0       -2.150000    0.000000    0.000000
      3          9           0        2.000000    0.000000    0.000000
 ---------------------------------------------------------------------

 SCF Done:  E(UB3LYP) =  -100.796010142     a.u. after   12 cycles

 Alpha  occ. eigenvalues --  -24.68068  -1.14394  -0.47107  -0.39600  -0.39600
 Alpha  occ. eigenvalues --   -0.35907
 Alpha virt. eigenvalues --   -0.13749   0.24099   0.30826   0.89155   0.95008
 Alpha virt. eigenvalues --    0.95008   1.05662   1.21929   1.21929   1.27697
 Alpha virt. eigenvalues --    1.34234   1.34234   1.59370   2.11299   2.29596

  Beta  occ. eigenvalues --  -24.65690  -1.07744  -0.37495  -0.37256  -0.37256
  Beta virt. eigenvalues --   -0.21101  -0.11202   0.25792   0.32731   0.91737
  Beta virt. eigenvalues --    0.95710   0.95710   1.08696   1.22853   1.22853
  Beta virt. eigenvalues --    1.37814   1.37814   1.41294   1.54256   2.12065

 Mulliken charges and spin densities:
               1          2
     1  H    0.154819  -0.671706
     2  H    0.035368   0.923975
     3  F   -0.190187   0.747731
 Sum of Mulliken charges =  -0.00000   1.00000

 Dipole moment (field-independent basis, Debye):
    X=             -2.2501    Y=             -0.0000    Z=             -0.0000  Tot=              2.2501
 Quadrupole moment (field-independent basis, Debye-Ang):
   XX=             -8.9576   YY=             -7.5419   ZZ=             -7.5419
   XY=             -0.0000   XZ=             -0.0000   YZ=             -0.0000

  Exact polarizability:      45.946       0.000       2.059       0.000       0.000       2.059
 Approx polarizability:      54.020      -0.000       1.960       0.000       0.000       1.960

 ******    2 imaginary frequencies (negative Signs) ******

                      1                      2                      3
                      A                      A                      A
 Frequencies --  -1406.8229              -533.3518               584.7885
 Red. masses --      1.0264                 1.0869                 1.0188
 Frc consts  --      1.1968                 0.1822                 0.2053
 IR Inten    --     90.2214                31.8979                16.8516

                      4
                      A
 Frequencies --    584.7885
 Red. masses --      1.0188
 Frc consts  --      0.2053
 IR Inten    --     16.8516

 - Thermochemistry -
 -------------------
 Temperature   298.150 Kelvin.  Pressure   1.00000 Atm.
 Atom     1 has atomic number  1 and mass   1.00783

 Molecular mass:    21.01405 amu.
 Principal axes and moments of inertia in atomic units:
                           1         2         3
     Eigenvalues --     0.00000  69.85153  69.85153
           X            1.00000  -0.00000   0.00000
           Y            0.00000   1.00000   0.00000
           Z            0.00000   0.00000   1.00000
 This molecule is a prolate symmetric top.
 Rotational symmetry number  1.
 Rotational temperature (Kelvin)      1.23997
 Rotational constant (GHZ):          25.836816
    2 imaginary frequencies ignored.
 Zero-point vibrational energy       6995.6 (Joules/Mol)
                                    1.67199 (Kcal/Mol)
 Warning -- explicit consideration of   2 degrees of freedom as
           vibrations may cause significant error
 Vibrational temperatures:    841.38   841.38
          (Kelvin)

 Zero-point correction=                           0.002664 (Hartree/Particle)
 Thermal correction to Energy=                    0.005362
 Thermal correction to Enthalpy=                  0.006306
 Thermal correction to Gibbs Free Energy=        -0.017584
 Sum of electronic and zero-point Energies=           -100.793346
 Sum of electronic and thermal Energies=              -100.790648
 Sum of electronic and thermal Enthalpies=            -100.789704
 Sum of electronic and thermal Free Energies=         -100.813594

                     E (Thermal)             CV                S
                      KCal/Mol        Cal/Mol-Kelvin    Cal/Mol-Kelvin
 Total                    3.365              7.097             50.281
 Electronic               0.000              0.000              1.377
 Translational            0.889              2.981             35.068
 Rotational               0.592              1.987             12.882
 Vibrational              1.883              2.129              0.953
 Vibration     1          0.942              1.064              0.477
 Vibration     2          0.942              1.064              0.477

 Normal termination of Gaussian 16 at Fri Aug 22 16:56:37 2025.
