 Gaussian 16, Revision C.01,
 Gaussian 16:  ES64L-G16RevC.01  3-Jul-2019

 -----------------------------------------
 # sp b3lyp/6-311g** Force nosymm scf=(qc)
 -----------------------------------------

 -------------------
 Title Card Required
 -------------------
 Symbolic Z-matrix:
 Charge =  0 Multiplicity = 2

                          Input orientation:
 ---------------------------------------------------------------------
 Center     Atomic      Atomic             Coordinates (Angstroms)
 Number     Number       Type             X           Y           Z
 ---------------------------------------------------------------------
      1          1           0        0.000000    0.000000    0.000000
      2          1           0       -3.150000    0.000000    0.000000
      3          9           0        3.150000    0.000000    0.000000
 ---------------------------------------------------------------------

 SCF Done:  E(UB3LYP) =  -100.760707039     a.u. after   24 cycles

 Alpha  occ. eigenvalues --  -24.74589  -1.20612  -0.53709  -0.45097  -0.45097
 Alpha  occ. eigenvalues --   -0.32559
 Alpha virt. eigenvalues --   -0.08323   0.24541   0.35718   0.88883   0.91971
 Alpha virt. eigenvalues --    0.91971   1.03120   1.24965   1.24965   1.25467
 Alpha virt. eigenvalues --    1.43510   1.43510   1.43678   2.15384   2.39783

  Beta  occ. eigenvalues --  -24.71528  -1.11829  -0.42031  -0.42031  -0.33416
  Beta virt. eigenvalues --   -0.25060  -0.07223   0.24411   0.37172   0.93443
  Beta virt. eigenvalues --    0.93443   0.97760   1.06984   1.23967   1.23967
  Beta virt. eigenvalues --    1.24489   1.45034   1.45213   1.45213   2.15827

 Mulliken charges and spin densities:
               1          2
     1  H    0.026081  -0.965348
     2  H    0.000863   0.994978
     3  F   -0.026944   0.970370
 Sum of Mulliken charges =  -0.00000   1.00000

 Dipole moment (field-independent basis, Debye):
    X=             -0.4491    Y=              0.0000    Z=              0.0000  Tot=              0.4491
 Quadrupole moment (field-independent basis, Debye-Ang):
   XX=             -7.9442   YY=             -7.6225   ZZ=             -7.6225
   XY=             -0.0000   XZ=             -0.0000   YZ=             -0.0000

  Exact polarizability:      32.333      -0.000       2.026      -0.000      -0.000       2.026
 Approx polarizability:      29.734      -0.000       1.927      -0.000       0.000       1.927

 ******    2 imaginary frequencies (negative Signs) ******

                      1                      2                      3
                      A                      A                      A
 Frequencies --   -370.4471              -155.7250               132.6675
 Red. masses --      1.0264                 1.0869                 1.0179
 Frc consts  --      0.0830                 0.0155                 0.0106
 IR Inten    --     26.2187                 3.8067                 0.6081

                      4
                      A
 Frequencies --    132.6675
 Red. masses --      1.0179
 Frc consts  --      0.0106
 IR Inten    --      0.6081

 - Thermochemistry -
 -------------------
 Temperature   298.150 Kelvin.  Pressure   1.00000 Atm.
 Atom     1 has atomic number  1 and mass   1.00783

 Molecular mass:    21.01405 amu.
 Principal axes and moments of inertia in atomic units:
                           1         2         3
     Eigenvalues --     0.00000 163.14158 163.14158
           X            1.00000  -0.00000   0.00000
           Y            0.00000   1.00000   0.00000
           Z            0.00000   0.00000   1.00000
 This molecule is a prolate symmetric top.
 Rotational symmetry number  1.
 Rotational temperature (Kelvin)      0.53091
 Rotational constant (GHZ):          11.062423
    2 imaginary frequencies ignored.
 Zero-point vibrational energy       1587.1 (Joules/Mol)
                                    0.37932 (Kcal/Mol)
 Warning -- explicit consideration of   2 degrees of freedom as
           vibrations may cause significant error
 Vibrational temperatures:    190.88   190.88
          (Kelvin)

 Zero-point correction=                           0.000604 (Hartree/Particle)
 Thermal correction to Energy=                    0.004313
 Thermal correction to Enthalpy=                  0.005257
 Thermal correction to Gibbs Free Energy=        -0.021743
 Sum of electronic and zero-point Energies=           -100.760103
 Sum of electronic and thermal Energies=              -100.756394
 Sum of electronic and thermal Enthalpies=            -100.755450
 Sum of electronic and thermal Free Energies=         -100.782450

                     E (Thermal)             CV                S
                      KCal/Mol        Cal/Mol-Kelvin    Cal/Mol-Kelvin
 Total                    2.706              8.809             56.827
 Electronic               0.000              0.000              1.377
 Translational            0.889              2.981             35.068
 Rotational               0.592              1.987             14.568
 Vibrational              1.225              3.841              5.814
 Vibration     1          0.613              1.921              2.907
 Vibration     2          0.613              1.921              2.907

 Normal termination of Gaussian 16 at Fri Aug 22 20:11:23 2025.
