 Gaussian 16, Revision C.01,
 Gaussian 16:  ES64L-G16RevC.01  3-Jul-2019

 -----------------------------------------
 # sp b3lyp/6-311g** Force nosymm scf=(qc)
 -----------------------------------------

 -------------------
 Title Card Required
 -------------------
 Symbolic Z-matrix:
 Charge =  0 Multiplicity = 2

                          Input orientation:
 ---------------------------------------------------------------------
 Center     Atomic      Atomic             Coordinates (Angstroms)
 Number     Number       Type             X           Y           Z
 ---------------------------------------------------------------------
      1          1           0        0.000000    0.000000    0.000000
      2          1           0       -1.250000    0.000000    0.000000
      3          9           0        1.400000    0.000000    0.000000
 ---------------------------------------------------------------------

 SCF Done:  E(UB3LYP) =  -100.908729083     a.u. after   11 cycles

 Alpha  occ. eigenvalues --  -24.65690  -1.13014  -0.50320  -0.38850  -0.38188
 Alpha  occ. eigenvalues --   -0.38188
 Alpha virt. eigenvalues --   -0.00731   0.19934   0.30678   0.91845   0.91845
 Alpha virt. eigenvalues --    1.00694   1.10176   1.10551   1.10551   1.49699
 Alpha virt. eigenvalues --    1.49699   1.56989   2.02493   2.24849   2.46913

  Beta  occ. eigenvalues --  -24.64115  -1.08824  -0.43566  -0.36690  -0.36690
  Beta virt. eigenvalues --   -0.22267   0.02543   0.22609   0.32671   0.92338
  Beta virt. eigenvalues --    0.92338   1.04621   1.14701   1.15896   1.15896
  Beta virt. eigenvalues --    1.52180   1.52180   1.60673   2.08017   2.29096

 Mulliken charges and spin densities:
               1          2
     1  H    0.234844  -0.140002
     2  H    0.066427   0.661696
     3  F   -0.301271   0.478306
 Sum of Mulliken charges =   0.00000   1.00000

 Dipole moment (field-independent basis, Debye):
    X=             -2.5019    Y=             -0.0000    Z=              0.0000  Tot=              2.5019
 Quadrupole moment (field-independent basis, Debye-Ang):
   XX=             -7.8632   YY=             -7.0829   ZZ=             -7.0829
   XY=              0.0000   XZ=             -0.0000   YZ=             -0.0000

  Exact polarizability:      29.990       0.000       2.400      -0.000       0.000       2.400
 Approx polarizability:      43.991       0.000       2.365      -0.000      -0.000       2.365

 ******    1 imaginary frequencies (negative Signs) ******

                      1                      2                      3
                      A                      A                      A
 Frequencies --  -2700.2792               411.9577              1164.9550
 Red. masses --      1.0235                 1.0902                 1.0166
 Frc consts  --      4.3968                 0.1090                 0.8129
 IR Inten    --    525.8296                28.0132                21.6977

                      4
                      A
 Frequencies --   1164.9550
 Red. masses --      1.0166
 Frc consts  --      0.8129
 IR Inten    --     21.6977

 - Thermochemistry -
 -------------------
 Temperature   298.150 Kelvin.  Pressure   1.00000 Atm.
 Atom     1 has atomic number  1 and mass   1.00783

 Molecular mass:    21.01405 amu.
 Principal axes and moments of inertia in atomic units:
                           1         2         3
     Eigenvalues --     0.00000  29.49691  29.49691
           X            1.00000  -0.00000   0.00000
           Y            0.00000   1.00000   0.00000
           Z            0.00000   0.00000   1.00000
 This molecule is a prolate symmetric top.
 Rotational symmetry number  1.
 Rotational temperature (Kelvin)      2.93637
 Rotational constant (GHZ):          61.184078
    1 imaginary frequencies ignored.
 Zero-point vibrational energy      16400.0 (Joules/Mol)
                                    3.91970 (Kcal/Mol)
 Warning -- explicit consideration of   1 degrees of freedom as
           vibrations may cause significant error
 Vibrational temperatures:    592.72  1676.11  1676.11
          (Kelvin)

 Zero-point correction=                           0.006246 (Hartree/Particle)
 Thermal correction to Energy=                    0.008943
 Thermal correction to Enthalpy=                  0.009888
 Thermal correction to Gibbs Free Energy=        -0.013218
 Sum of electronic and zero-point Energies=           -100.902483
 Sum of electronic and thermal Energies=              -100.899786
 Sum of electronic and thermal Enthalpies=            -100.898842
 Sum of electronic and thermal Free Energies=         -100.921947

                     E (Thermal)             CV                S
                      KCal/Mol        Cal/Mol-Kelvin    Cal/Mol-Kelvin
 Total                    5.612              6.870             48.630
 Electronic               0.000              0.000              1.377
 Translational            0.889              2.981             35.068
 Rotational               0.592              1.987             11.169
 Vibrational              4.131              1.902              1.015
 Vibration     1          0.776              1.444              0.920

 Normal termination of Gaussian 16 at Fri Aug 22 16:19:33 2025.
