 Gaussian 16, Revision C.01,
 Gaussian 16:  ES64L-G16RevC.01  3-Jul-2019

 -----------------------------------------
 # sp b3lyp/6-311g** Force nosymm scf=(qc)
 -----------------------------------------

 -------------------
 Title Card Required
 -------------------
 Symbolic Z-matrix:
 Charge =  0 Multiplicity = 2

                          Input orientation:
 ---------------------------------------------------------------------
 Center     Atomic      Atomic             Coordinates (Angstroms)
 Number     Number       Type             X           Y           Z
 ---------------------------------------------------------------------
      1          1           0        0.000000    0.000000    0.000000
      2          1           0       -3.200000    0.000000    0.000000
      3          9           0        3.350000    0.000000    0.000000
 ---------------------------------------------------------------------

 SCF Done:  E(UB3LYP) =  -100.759874708     a.u. after   24 cycles

 Alpha  occ. eigenvalues --  -24.75104  -1.21088  -0.54225  -0.45529  -0.45529
 Alpha  occ. eigenvalues --   -0.32449
 Alpha virt. eigenvalues --   -0.07808   0.24579   0.36191   0.88120   0.91656
 Alpha virt. eigenvalues --    0.91656   1.02273   1.25071   1.25071   1.25488
 Alpha virt. eigenvalues --    1.44177   1.44206   1.44206   2.15400   2.40188

  Beta  occ. eigenvalues --  -24.72008  -1.12198  -0.42427  -0.42427  -0.33055
  Beta virt. eigenvalues --   -0.25337  -0.07066   0.24367   0.37330   0.93139
  Beta virt. eigenvalues --    0.93139   0.97159   1.06228   1.24366   1.24366
  Beta virt. eigenvalues --    1.24755   1.45189   1.45391   1.45391   2.15764

 Mulliken charges and spin densities:
               1          2
     1  H    0.016385  -0.976928
     2  H    0.000530   0.995540
     3  F   -0.016915   0.981387
 Sum of Mulliken charges =  -0.00000   1.00000

 Dipole moment (field-independent basis, Debye):
    X=             -0.2994    Y=             -0.0000    Z=              0.0000  Tot=              0.2994
 Quadrupole moment (field-independent basis, Debye-Ang):
   XX=             -7.5915   YY=             -7.6258   ZZ=             -7.6258
   XY=              0.0000   XZ=             -0.0000   YZ=             -0.0000

  Exact polarizability:      28.539       0.000       2.029      -0.000       0.000       2.029
 Approx polarizability:      23.846       0.000       1.931      -0.000       0.000       1.931

 ******    2 imaginary frequencies (negative Signs) ******

                      1                      2                      3
                      A                      A                      A
 Frequencies --   -321.0645              -136.1978               109.4979
 Red. masses --      1.0207                 1.0933                 1.0174
 Frc consts  --      0.0620                 0.0119                 0.0072
 IR Inten    --     15.2195                 3.3235                 0.2362

                      4
                      A
 Frequencies --    109.4980
 Red. masses --      1.0174
 Frc consts  --      0.0072
 IR Inten    --      0.2362

 - Thermochemistry -
 -------------------
 Temperature   298.150 Kelvin.  Pressure   1.00000 Atm.
 Atom     1 has atomic number  1 and mass   1.00783

 Molecular mass:    21.01405 amu.
 Principal axes and moments of inertia in atomic units:
                           1         2         3
     Eigenvalues --     0.00000 177.87913 177.87913
           X            1.00000  -0.00000   0.00000
           Y            0.00000   1.00000   0.00000
           Z            0.00000   0.00000   1.00000
 This molecule is a prolate symmetric top.
 Rotational symmetry number  1.
 Rotational temperature (Kelvin)      0.48693
 Rotational constant (GHZ):          10.145885
    2 imaginary frequencies ignored.
 Zero-point vibrational energy       1309.9 (Joules/Mol)
                                    0.31307 (Kcal/Mol)
 Warning -- explicit consideration of   2 degrees of freedom as
           vibrations may cause significant error
 Vibrational temperatures:    157.54   157.54
          (Kelvin)

 Zero-point correction=                           0.000499 (Hartree/Particle)
 Thermal correction to Energy=                    0.004293
 Thermal correction to Enthalpy=                  0.005237
 Thermal correction to Gibbs Free Energy=        -0.022198
 Sum of electronic and zero-point Energies=           -100.759376
 Sum of electronic and thermal Energies=              -100.755582
 Sum of electronic and thermal Enthalpies=            -100.754638
 Sum of electronic and thermal Free Energies=         -100.782072

                     E (Thermal)             CV                S
                      KCal/Mol        Cal/Mol-Kelvin    Cal/Mol-Kelvin
 Total                    2.694              8.851             57.741
 Electronic               0.000              0.000              1.377
 Translational            0.889              2.981             35.068
 Rotational               0.592              1.987             14.740
 Vibrational              1.212              3.883              6.556
 Vibration     1          0.606              1.942              3.278
 Vibration     2          0.606              1.942              3.278

 Normal termination of Gaussian 16 at Fri Aug 22 21:02:51 2025.
