 Gaussian 16, Revision C.01,
 Gaussian 16:  ES64L-G16RevC.01  3-Jul-2019

 -----------------------------------------
 # sp b3lyp/6-311g** Force nosymm scf=(qc)
 -----------------------------------------

 -------------------
 Title Card Required
 -------------------
 Symbolic Z-matrix:
 Charge =  0 Multiplicity = 2

                          Input orientation:
 ---------------------------------------------------------------------
 Center     Atomic      Atomic             Coordinates (Angstroms)
 Number     Number       Type             X           Y           Z
 ---------------------------------------------------------------------
      1          1           0        0.000000    0.000000    0.000000
      2          1           0       -3.400000    0.000000    0.000000
      3          9           0        1.100000    0.000000    0.000000
 ---------------------------------------------------------------------

 SCF Done:  E(UB3LYP) =  -100.948455716     a.u. after    6 cycles

 Alpha  occ. eigenvalues --  -24.64287  -1.13860  -0.49606  -0.38094  -0.38094
 Alpha  occ. eigenvalues --   -0.33867
 Alpha virt. eigenvalues --   -0.02441   0.23314   0.31271   0.93577   0.93577
 Alpha virt. eigenvalues --    0.99606   1.23569   1.23650   1.23650   1.28936
 Alpha virt. eigenvalues --    1.35224   1.35224   1.79682   2.14073   2.31848

  Beta  occ. eigenvalues --  -24.64283  -1.13851  -0.49596  -0.38091  -0.38091
  Beta virt. eigenvalues --   -0.06846  -0.01474   0.29659   0.38915   0.93577
  Beta virt. eigenvalues --    0.93577   0.99614   1.28788   1.35219   1.35219
  Beta virt. eigenvalues --    1.48674   1.48674   1.48962   1.79716   2.31654

 Mulliken charges and spin densities:
               1          2
     1  H    0.339923   0.000458
     2  H    0.001381   0.998404
     3  F   -0.341304   0.001138
 Sum of Mulliken charges =   0.00000   1.00000

 Dipole moment (field-independent basis, Debye):
    X=             -2.1765    Y=             -0.0000    Z=              0.0000  Tot=              2.1765
 Quadrupole moment (field-independent basis, Debye-Ang):
   XX=             -8.5227   YY=             -7.0485   ZZ=             -7.0485
   XY=              0.0000   XZ=              0.0000   YZ=             -0.0000

  Exact polarizability:       8.179      -0.000       2.365       0.000      -0.000       2.365
 Approx polarizability:      10.636      -0.000       2.330       0.000       0.000       2.330

 ******    1 imaginary frequencies (negative Signs) ******

                      1                      2                      3
                      A                      A                      A
 Frequencies --    -60.8069              1183.0086              1183.0086
 Red. masses --      1.0531                 1.0351                 1.0351
 Frc consts  --      0.0023                 0.8535                 0.8535
 IR Inten    --      0.1054               156.3345               156.3345

                      4
                      A
 Frequencies --   1939.0973
 Red. masses --      1.0585
 Frc consts  --      2.3449
 IR Inten    --     80.1613

 - Thermochemistry -
 -------------------
 Temperature   298.150 Kelvin.  Pressure   1.00000 Atm.
 Atom     1 has atomic number  1 and mass   1.00783

 Molecular mass:    21.01405 amu.
 Principal axes and moments of inertia in atomic units:
                           1         2         3
     Eigenvalues --     0.00000  71.82177  71.82177
           X            1.00000  -0.00000   0.00000
           Y            0.00000   1.00000   0.00000
           Z            0.00000   0.00000   1.00000
 This molecule is a prolate symmetric top.
 Rotational symmetry number  1.
 Rotational temperature (Kelvin)      1.20596
 Rotational constant (GHZ):          25.128052
    1 imaginary frequencies ignored.
 Zero-point vibrational energy      25750.3 (Joules/Mol)
                                    6.15447 (Kcal/Mol)
 Vibrational temperatures:   1702.09  1702.09  2789.93
          (Kelvin)

 Zero-point correction=                           0.009808 (Hartree/Particle)
 Thermal correction to Energy=                    0.012205
 Thermal correction to Enthalpy=                  0.013149
 Thermal correction to Gibbs Free Energy=        -0.010357
 Sum of electronic and zero-point Energies=           -100.938648
 Sum of electronic and thermal Energies=              -100.936251
 Sum of electronic and thermal Enthalpies=            -100.935307
 Sum of electronic and thermal Free Energies=         -100.958813

                     E (Thermal)             CV                S
                      KCal/Mol        Cal/Mol-Kelvin    Cal/Mol-Kelvin
 Total                    7.659              5.415             49.473
 Electronic               0.000              0.000              1.377
 Translational            0.889              2.981             35.068
 Rotational               0.592              1.987             12.937
 Vibrational              6.177              0.447              0.090

 Normal termination of Gaussian 16 at Fri Aug 22 16:06:15 2025.
