 Gaussian 16, Revision C.01,
 Gaussian 16:  ES64L-G16RevC.01  3-Jul-2019

 -----------------------------------------
 # sp b3lyp/6-311g** Force nosymm scf=(qc)
 -----------------------------------------

 -------------------
 Title Card Required
 -------------------
 Symbolic Z-matrix:
 Charge =  0 Multiplicity = 2

                          Input orientation:
 ---------------------------------------------------------------------
 Center     Atomic      Atomic             Coordinates (Angstroms)
 Number     Number       Type             X           Y           Z
 ---------------------------------------------------------------------
      1          1           0        0.000000    0.000000    0.000000
      2          1           0       -2.000000    0.000000    0.000000
      3          9           0        1.150000    0.000000    0.000000
 ---------------------------------------------------------------------

 SCF Done:  E(UB3LYP) =  -100.939241123     a.u. after    6 cycles

 Alpha  occ. eigenvalues --  -24.63772  -1.12632  -0.48737  -0.37352  -0.37352
 Alpha  occ. eigenvalues --   -0.36496
 Alpha virt. eigenvalues --   -0.01277   0.23847   0.29623   0.93774   0.93774
 Alpha virt. eigenvalues --    1.00296   1.13034   1.20743   1.20743   1.35653
 Alpha virt. eigenvalues --    1.35653   1.46488   1.74331   2.14257   2.33072

  Beta  occ. eigenvalues --  -24.63640  -1.12300  -0.48027  -0.37232  -0.37232
  Beta virt. eigenvalues --   -0.14004   0.01688   0.29349   0.34108   0.93778
  Beta virt. eigenvalues --    0.93778   1.00738   1.21778   1.34601   1.34601
  Beta virt. eigenvalues --    1.40653   1.40653   1.55368   1.75669   2.29180

 Mulliken charges and spin densities:
               1          2
     1  H    0.329470  -0.003761
     2  H    0.024027   0.965041
     3  F   -0.353498   0.038720
 Sum of Mulliken charges =  -0.00000   1.00000

 Dipole moment (field-independent basis, Debye):
    X=             -2.4897    Y=              0.0000    Z=             -0.0000  Tot=              2.4897
 Quadrupole moment (field-independent basis, Debye-Ang):
   XX=             -8.1300   YY=             -7.0484   ZZ=             -7.0484
   XY=              0.0000   XZ=             -0.0000   YZ=             -0.0000

  Exact polarizability:      14.234       0.000       2.402      -0.000       0.000       2.402
 Approx polarizability:      17.013       0.000       2.370       0.000      -0.000       2.370

 ******    1 imaginary frequencies (negative Signs) ******

                      1                      2                      3
                      A                      A                      A
 Frequencies --   -294.0585              1159.6342              1159.6342
 Red. masses --      1.0410                 1.0258                 1.0258
 Frc consts  --      0.0530                 0.8128                 0.8128
 IR Inten    --     17.5472               115.0477               115.0477

                      4
                      A
 Frequencies --   1306.9577
 Red. masses --      1.0710
 Frc consts  --      1.0778
 IR Inten    --    192.9852

 - Thermochemistry -
 -------------------
 Temperature   298.150 Kelvin.  Pressure   1.00000 Atm.
 Atom     1 has atomic number  1 and mass   1.00783

 Molecular mass:    21.01405 amu.
 Principal axes and moments of inertia in atomic units:
                           1         2         3
     Eigenvalues --     0.00000  37.27935  37.27935
           X            1.00000  -0.00000   0.00000
           Y            0.00000   1.00000   0.00000
           Z            0.00000   0.00000   1.00000
 This molecule is a prolate symmetric top.
 Rotational symmetry number  1.
 Rotational temperature (Kelvin)      2.32338
 Rotational constant (GHZ):          48.411285
    1 imaginary frequencies ignored.
 Zero-point vibrational energy      21689.6 (Joules/Mol)
                                    5.18395 (Kcal/Mol)
 Vibrational temperatures:   1668.45  1668.45  1880.42
          (Kelvin)

 Zero-point correction=                           0.008261 (Hartree/Particle)
 Thermal correction to Energy=                    0.010672
 Thermal correction to Enthalpy=                  0.011616
 Thermal correction to Gibbs Free Energy=        -0.011287
 Sum of electronic and zero-point Energies=           -100.930980
 Sum of electronic and thermal Energies=              -100.928569
 Sum of electronic and thermal Enthalpies=            -100.927625
 Sum of electronic and thermal Free Energies=         -100.950528

                     E (Thermal)             CV                S
                      KCal/Mol        Cal/Mol-Kelvin    Cal/Mol-Kelvin
 Total                    6.697              5.578             48.204
 Electronic               0.000              0.000              1.377
 Translational            0.889              2.981             35.068
 Rotational               0.592              1.987             11.634
 Vibrational              5.215              0.610              0.124

 Normal termination of Gaussian 16 at Fri Aug 22 16:07:44 2025.
