 Gaussian 16, Revision C.01,
 Gaussian 16:  ES64L-G16RevC.01  3-Jul-2019

 -----------------------------------------
 # sp b3lyp/6-311g** Force nosymm scf=(qc)
 -----------------------------------------

 -------------------
 Title Card Required
 -------------------
 Symbolic Z-matrix:
 Charge =  0 Multiplicity = 2

                          Input orientation:
 ---------------------------------------------------------------------
 Center     Atomic      Atomic             Coordinates (Angstroms)
 Number     Number       Type             X           Y           Z
 ---------------------------------------------------------------------
      1          1           0        0.000000    0.000000    0.000000
      2          1           0       -1.600000    0.000000    0.000000
      3          9           0        1.700000    0.000000    0.000000
 ---------------------------------------------------------------------

 SCF Done:  E(UB3LYP) =  -100.846027437     a.u. after   11 cycles

 Alpha  occ. eigenvalues --  -24.66369  -1.12814  -0.46572  -0.38548  -0.38260
 Alpha  occ. eigenvalues --   -0.38260
 Alpha virt. eigenvalues --   -0.10251   0.21830   0.29543   0.89356   0.94186
 Alpha virt. eigenvalues --    0.94186   1.03432   1.17200   1.17200   1.37253
 Alpha virt. eigenvalues --    1.37253   1.37823   1.81594   2.17120   2.39215

  Beta  occ. eigenvalues --  -24.64429  -1.07489  -0.39439  -0.36371  -0.36371
  Beta virt. eigenvalues --   -0.22051  -0.07696   0.24721   0.29925   0.92956
  Beta virt. eigenvalues --    0.94414   0.94414   1.07247   1.22228   1.22228
  Beta virt. eigenvalues --    1.37977   1.37977   1.43654   1.84000   2.18408

 Mulliken charges and spin densities:
               1          2
     1  H    0.186094  -0.350137
     2  H    0.070169   0.743563
     3  F   -0.256263   0.606575
 Sum of Mulliken charges =   0.00000   1.00000

 Dipole moment (field-independent basis, Debye):
    X=             -2.6711    Y=             -0.0000    Z=             -0.0000  Tot=              2.6711
 Quadrupole moment (field-independent basis, Debye-Ang):
   XX=             -8.2442   YY=             -7.3912   ZZ=             -7.3912
   XY=             -0.0000   XZ=             -0.0000   YZ=             -0.0000

  Exact polarizability:      43.985      -0.000       2.192      -0.000      -0.000       2.192
 Approx polarizability:      63.890       0.000       2.121       0.000      -0.000       2.121

 ******    2 imaginary frequencies (negative Signs) ******

                      1                      2                      3
                      A                      A                      A
 Frequencies --  -2362.9250              -577.8428               979.1698
 Red. masses --      1.0202                 1.0939                 1.0172
 Frc consts  --      3.3562                 0.2152                 0.5746
 IR Inten    --    452.1592                 1.2118                15.7066

                      4
                      A
 Frequencies --    979.1698
 Red. masses --      1.0172
 Frc consts  --      0.5746
 IR Inten    --     15.7066

 - Thermochemistry -
 -------------------
 Temperature   298.150 Kelvin.  Pressure   1.00000 Atm.
 Atom     1 has atomic number  1 and mass   1.00783

 Molecular mass:    21.01405 amu.
 Principal axes and moments of inertia in atomic units:
                           1         2         3
     Eigenvalues --     0.00000  45.27916  45.27916
           X            1.00000  -0.00000   0.00000
           Y            0.00000   1.00000   0.00000
           Z            0.00000   0.00000   1.00000
 This molecule is a prolate symmetric top.
 Rotational symmetry number  1.
 Rotational temperature (Kelvin)      1.91289
 Rotational constant (GHZ):          39.858094
    2 imaginary frequencies ignored.
 Zero-point vibrational energy      11713.5 (Joules/Mol)
                                    2.79959 (Kcal/Mol)
 Vibrational temperatures:   1408.81  1408.81
          (Kelvin)

 Zero-point correction=                           0.004461 (Hartree/Particle)
 Thermal correction to Energy=                    0.006902
 Thermal correction to Enthalpy=                  0.007846
 Thermal correction to Gibbs Free Energy=        -0.015279
 Sum of electronic and zero-point Energies=           -100.841566
 Sum of electronic and thermal Energies=              -100.839126
 Sum of electronic and thermal Enthalpies=            -100.838182
 Sum of electronic and thermal Free Energies=         -100.861306

                     E (Thermal)             CV                S
                      KCal/Mol        Cal/Mol-Kelvin    Cal/Mol-Kelvin
 Total                    4.331              5.769             48.669
 Electronic               0.000              0.000              1.377
 Translational            0.889              2.981             35.068
 Rotational               0.592              1.987             12.021
 Vibrational              2.850              0.801              0.203

 Normal termination of Gaussian 16 at Fri Aug 22 16:37:04 2025.
