 Gaussian 16, Revision C.01,
 Gaussian 16:  ES64L-G16RevC.01  3-Jul-2019

 -----------------------------------------
 # sp b3lyp/6-311g** Force nosymm scf=(qc)
 -----------------------------------------

 -------------------
 Title Card Required
 -------------------
 Symbolic Z-matrix:
 Charge =  0 Multiplicity = 2

                          Input orientation:
 ---------------------------------------------------------------------
 Center     Atomic      Atomic             Coordinates (Angstroms)
 Number     Number       Type             X           Y           Z
 ---------------------------------------------------------------------
      1          1           0        0.000000    0.000000    0.000000
      2          1           0       -3.600000    0.000000    0.000000
      3          9           0        1.350000    0.000000    0.000000
 ---------------------------------------------------------------------

 SCF Done:  E(UB3LYP) =  -100.889156682     a.u. after    7 cycles

 Alpha  occ. eigenvalues --  -24.64375  -1.10663  -0.45289  -0.36880  -0.36880
 Alpha  occ. eigenvalues --   -0.33836
 Alpha virt. eigenvalues --   -0.10452   0.21044   0.28083   0.93020   0.93020
 Alpha virt. eigenvalues --    1.02648   1.18438   1.23677   1.23677   1.23684
 Alpha virt. eigenvalues --    1.33246   1.33246   1.70761   2.13462   2.22941

  Beta  occ. eigenvalues --  -24.64369  -1.10646  -0.45271  -0.36874  -0.36874
  Beta virt. eigenvalues --   -0.10876  -0.06080   0.24406   0.38415   0.93018
  Beta virt. eigenvalues --    0.93018   1.02667   1.18476   1.33223   1.33223
  Beta virt. eigenvalues --    1.46309   1.46754   1.46754   1.70785   2.22361

 Mulliken charges and spin densities:
               1          2
     1  H    0.357937  -0.000881
     2  H    0.001211   0.998700
     3  F   -0.359147   0.002181
 Sum of Mulliken charges =  -0.00000   1.00000

 Dipole moment (field-independent basis, Debye):
    X=             -2.4612    Y=              0.0000    Z=              0.0000  Tot=              2.4612
 Quadrupole moment (field-independent basis, Debye-Ang):
   XX=             -9.3843   YY=             -7.2326   ZZ=             -7.2326
   XY=              0.0000   XZ=              0.0000   YZ=             -0.0000

  Exact polarizability:      12.140       0.000       2.256      -0.000      -0.000       2.256
 Approx polarizability:      19.715      -0.000       2.195       0.000      -0.000       2.195

 ******    2 imaginary frequencies (negative Signs) ******

                      1                      2                      3
                      A                      A                      A
 Frequencies --   -873.7684               -60.0837              1129.5839
 Red. masses --      1.0575                 1.0540                 1.0327
 Frc consts  --      0.4757                 0.0022                 0.7764
 IR Inten    --     53.4836                 0.0717               131.7722

                      4
                      A
 Frequencies --   1129.5839
 Red. masses --      1.0327
 Frc consts  --      0.7764
 IR Inten    --    131.7722

 - Thermochemistry -
 -------------------
 Temperature   298.150 Kelvin.  Pressure   1.00000 Atm.
 Atom     1 has atomic number  1 and mass   1.00783

 Molecular mass:    21.01405 amu.
 Principal axes and moments of inertia in atomic units:
                           1         2         3
     Eigenvalues --     0.00000  87.89313  87.89313
           X            1.00000  -0.00000   0.00000
           Y            0.00000   1.00000   0.00000
           Z            0.00000   0.00000   1.00000
 This molecule is a prolate symmetric top.
 Rotational symmetry number  1.
 Rotational temperature (Kelvin)      0.98545
 Rotational constant (GHZ):          20.533359
    2 imaginary frequencies ignored.
 Zero-point vibrational energy      13512.8 (Joules/Mol)
                                    3.22964 (Kcal/Mol)
 Vibrational temperatures:   1625.22  1625.22
          (Kelvin)

 Zero-point correction=                           0.005147 (Hartree/Particle)
 Thermal correction to Energy=                    0.007552
 Thermal correction to Enthalpy=                  0.008496
 Thermal correction to Gibbs Free Energy=        -0.015211
 Sum of electronic and zero-point Energies=           -100.884010
 Sum of electronic and thermal Energies=              -100.881605
 Sum of electronic and thermal Enthalpies=            -100.880661
 Sum of electronic and thermal Free Energies=         -100.904367

                     E (Thermal)             CV                S
                      KCal/Mol        Cal/Mol-Kelvin    Cal/Mol-Kelvin
 Total                    4.739              5.479             49.895
 Electronic               0.000              0.000              1.377
 Translational            0.889              2.981             35.068
 Rotational               0.592              1.987             13.339
 Vibrational              3.257              0.511              0.110

 Normal termination of Gaussian 16 at Fri Aug 22 16:18:41 2025.
