 Gaussian 16, Revision C.01,
 Gaussian 16:  ES64L-G16RevC.01  3-Jul-2019

 -----------------------------------------
 # sp b3lyp/6-311g** Force nosymm scf=(qc)
 -----------------------------------------

 -------------------
 Title Card Required
 -------------------
 Symbolic Z-matrix:
 Charge =  0 Multiplicity = 2

                          Input orientation:
 ---------------------------------------------------------------------
 Center     Atomic      Atomic             Coordinates (Angstroms)
 Number     Number       Type             X           Y           Z
 ---------------------------------------------------------------------
      1          1           0        0.000000    0.000000    0.000000
      2          1           0       -3.100000    0.000000    0.000000
      3          9           0        2.800000    0.000000    0.000000
 ---------------------------------------------------------------------

 SCF Done:  E(UB3LYP) =  -100.763394573     a.u. after   20 cycles

 Alpha  occ. eigenvalues --  -24.73294  -1.19409  -0.52409  -0.44011  -0.44011
 Alpha  occ. eigenvalues --   -0.32827
 Alpha virt. eigenvalues --   -0.09471   0.24321   0.35132   0.89963   0.92746
 Alpha virt. eigenvalues --    0.92746   1.05132   1.24703   1.24703   1.25348
 Alpha virt. eigenvalues --    1.42091   1.42091   1.42945   2.15229   2.37969

  Beta  occ. eigenvalues --  -24.70324  -1.10916  -0.41042  -0.41042  -0.34300
  Beta virt. eigenvalues --   -0.24316  -0.07462   0.24550   0.37002   0.94186
  Beta virt. eigenvalues --    0.94186   0.98251   1.08626   1.23045   1.23045
  Beta virt. eigenvalues --    1.24869   1.44843   1.44978   1.44978   2.15157

 Mulliken charges and spin densities:
               1          2
     1  H    0.052253  -0.934605
     2  H    0.001683   0.994326
     3  F   -0.053935   0.940280
 Sum of Mulliken charges =  -0.00000   1.00000

 Dipole moment (field-independent basis, Debye):
    X=             -0.7990    Y=             -0.0000    Z=             -0.0000  Tot=              0.7990
 Quadrupole moment (field-independent basis, Debye-Ang):
   XX=             -8.6259   YY=             -7.6073   ZZ=             -7.6073
   XY=             -0.0000   XZ=             -0.0000   YZ=             -0.0000

  Exact polarizability:      34.674      -0.000       2.021      -0.000      -0.000       2.021
 Approx polarizability:      37.588      -0.000       1.922      -0.000      -0.000       1.922

 ******    2 imaginary frequencies (negative Signs) ******

                      1                      2                      3
                      A                      A                      A
 Frequencies --   -492.7602              -182.9937               183.7023
 Red. masses --      1.0388                 1.0734                 1.0192
 Frc consts  --      0.1486                 0.0212                 0.0203
 IR Inten    --     52.0976                 2.9876                 2.4942

                      4
                      A
 Frequencies --    183.7024
 Red. masses --      1.0192
 Frc consts  --      0.0203
 IR Inten    --      2.4942

 - Thermochemistry -
 -------------------
 Temperature   298.150 Kelvin.  Pressure   1.00000 Atm.
 Atom     1 has atomic number  1 and mass   1.00783

 Molecular mass:    21.01405 amu.
 Principal axes and moments of inertia in atomic units:
                           1         2         3
     Eigenvalues --     0.00000 140.43310 140.43310
           X            1.00000  -0.00000   0.00000
           Y            0.00000   1.00000   0.00000
           Z            0.00000   0.00000   1.00000
 This molecule is a prolate symmetric top.
 Rotational symmetry number  1.
 Rotational temperature (Kelvin)      0.61676
 Rotational constant (GHZ):          12.851253
    2 imaginary frequencies ignored.
 Zero-point vibrational energy       2197.6 (Joules/Mol)
                                    0.52523 (Kcal/Mol)
 Warning -- explicit consideration of   2 degrees of freedom as
           vibrations may cause significant error
 Vibrational temperatures:    264.31   264.31
          (Kelvin)

 Zero-point correction=                           0.000837 (Hartree/Particle)
 Thermal correction to Energy=                    0.004371
 Thermal correction to Enthalpy=                  0.005315
 Thermal correction to Gibbs Free Energy=        -0.020958
 Sum of electronic and zero-point Energies=           -100.762558
 Sum of electronic and thermal Energies=              -100.759024
 Sum of electronic and thermal Enthalpies=            -100.758079
 Sum of electronic and thermal Free Energies=         -100.784352

                     E (Thermal)             CV                S
                      KCal/Mol        Cal/Mol-Kelvin    Cal/Mol-Kelvin
 Total                    2.743              8.692             55.296
 Electronic               0.000              0.000              1.377
 Translational            0.889              2.981             35.068
 Rotational               0.592              1.987             14.270
 Vibrational              1.262              3.724              4.581
 Vibration     1          0.631              1.862              2.290
 Vibration     2          0.631              1.862              2.290

 Normal termination of Gaussian 16 at Fri Aug 22 18:44:12 2025.
