 Gaussian 16, Revision C.01,
 Gaussian 16:  ES64L-G16RevC.01  3-Jul-2019

 -----------------------------------------
 # sp b3lyp/6-311g** Force nosymm scf=(qc)
 -----------------------------------------

 -------------------
 Title Card Required
 -------------------
 Symbolic Z-matrix:
 Charge =  0 Multiplicity = 2

                          Input orientation:
 ---------------------------------------------------------------------
 Center     Atomic      Atomic             Coordinates (Angstroms)
 Number     Number       Type             X           Y           Z
 ---------------------------------------------------------------------
      1          1           0        0.000000    0.000000    0.000000
      2          1           0       -3.450000    0.000000    0.000000
      3          9           0        3.250000    0.000000    0.000000
 ---------------------------------------------------------------------

 SCF Done:  E(UB3LYP) =  -100.759854943     a.u. after   22 cycles

 Alpha  occ. eigenvalues --  -24.74855  -1.20857  -0.53976  -0.45320  -0.45320
 Alpha  occ. eigenvalues --   -0.32434
 Alpha virt. eigenvalues --   -0.07535   0.24227   0.36465   0.88477   0.91809
 Alpha virt. eigenvalues --    0.91809   1.02657   1.25073   1.25073   1.25258
 Alpha virt. eigenvalues --    1.44604   1.44604   1.44763   2.15004   2.40839

  Beta  occ. eigenvalues --  -24.71775  -1.12018  -0.42235  -0.42235  -0.33205
  Beta virt. eigenvalues --   -0.25203  -0.06601   0.24027   0.37825   0.93287
  Beta virt. eigenvalues --    0.93287   0.97429   1.06554   1.24181   1.24181
  Beta virt. eigenvalues --    1.24377   1.45754   1.46003   1.46003   2.15328

 Mulliken charges and spin densities:
               1          2
     1  H    0.021363  -0.973839
     2  H    0.000334   0.997637
     3  F   -0.021697   0.976202
 Sum of Mulliken charges =  -0.00000   1.00000

 Dipole moment (field-independent basis, Debye):
    X=             -0.3679    Y=              0.0000    Z=              0.0000  Tot=              0.3679
 Quadrupole moment (field-independent basis, Debye-Ang):
   XX=             -7.8092   YY=             -7.6185   ZZ=             -7.6185
   XY=             -0.0000   XZ=             -0.0000   YZ=              0.0000

  Exact polarizability:      29.317      -0.000       2.029      -0.000      -0.000       2.029
 Approx polarizability:      26.040      -0.000       1.930      -0.000       0.000       1.930

 ******    2 imaginary frequencies (negative Signs) ******

                      1                      2                      3
                      A                      A                      A
 Frequencies --   -305.9561              -118.1429               102.3854
 Red. masses --      1.0365                 1.0757                 1.0187
 Frc consts  --      0.0572                 0.0088                 0.0063
 IR Inten    --     22.6553                 1.2558                 0.4163

                      4
                      A
 Frequencies --    102.3854
 Red. masses --      1.0187
 Frc consts  --      0.0063
 IR Inten    --      0.4163

 - Thermochemistry -
 -------------------
 Temperature   298.150 Kelvin.  Pressure   1.00000 Atm.
 Atom     1 has atomic number  1 and mass   1.00783

 Molecular mass:    21.01405 amu.
 Principal axes and moments of inertia in atomic units:
                           1         2         3
     Eigenvalues --     0.00000 182.48550 182.48550
           X            1.00000  -0.00000   0.00000
           Y            0.00000   1.00000   0.00000
           Z            0.00000   0.00000   1.00000
 This molecule is a prolate symmetric top.
 Rotational symmetry number  1.
 Rotational temperature (Kelvin)      0.47463
 Rotational constant (GHZ):           9.889778
    2 imaginary frequencies ignored.
 Zero-point vibrational energy       1224.8 (Joules/Mol)
                                    0.29273 (Kcal/Mol)
 Warning -- explicit consideration of   2 degrees of freedom as
           vibrations may cause significant error
 Vibrational temperatures:    147.31   147.31
          (Kelvin)

 Zero-point correction=                           0.000467 (Hartree/Particle)
 Thermal correction to Energy=                    0.004287
 Thermal correction to Enthalpy=                  0.005231
 Thermal correction to Gibbs Free Energy=        -0.022351
 Sum of electronic and zero-point Energies=           -100.759388
 Sum of electronic and thermal Energies=              -100.755568
 Sum of electronic and thermal Enthalpies=            -100.754624
 Sum of electronic and thermal Free Energies=         -100.782206

                     E (Thermal)             CV                S
                      KCal/Mol        Cal/Mol-Kelvin    Cal/Mol-Kelvin
 Total                    2.690              8.863             58.053
 Electronic               0.000              0.000              1.377
 Translational            0.889              2.981             35.068
 Rotational               0.592              1.987             14.790
 Vibrational              1.209              3.895              6.817
 Vibration     1          0.604              1.947              3.408
 Vibration     2          0.604              1.947              3.408

 Normal termination of Gaussian 16 at Fri Aug 22 20:36:10 2025.
