 Gaussian 16, Revision C.01,
 Gaussian 16:  ES64L-G16RevC.01  3-Jul-2019

 -----------------------------------------
 # sp b3lyp/6-311g** Force nosymm scf=(qc)
 -----------------------------------------

 -------------------
 Title Card Required
 -------------------
 Symbolic Z-matrix:
 Charge =  0 Multiplicity = 2

                          Input orientation:
 ---------------------------------------------------------------------
 Center     Atomic      Atomic             Coordinates (Angstroms)
 Number     Number       Type             X           Y           Z
 ---------------------------------------------------------------------
      1          1           0        0.000000    0.000000    0.000000
      2          1           0       -3.100000    0.000000    0.000000
      3          9           0        3.300000    0.000000    0.000000
 ---------------------------------------------------------------------

 SCF Done:  E(UB3LYP) =  -100.760228981     a.u. after   29 cycles

 Alpha  occ. eigenvalues --  -24.74994  -1.20986  -0.54115  -0.45436  -0.45436
 Alpha  occ. eigenvalues --   -0.32498
 Alpha virt. eigenvalues --   -0.08119   0.24705   0.35845   0.88310   0.91723
 Alpha virt. eigenvalues --    0.91723   1.02458   1.25029   1.25029   1.25593
 Alpha virt. eigenvalues --    1.43764   1.43764   1.43793   2.15519   2.39817

  Beta  occ. eigenvalues --  -24.71906  -1.12119  -0.42342  -0.42342  -0.33144
  Beta virt. eigenvalues --   -0.25280  -0.07303   0.24509   0.37047   0.93204
  Beta virt. eigenvalues --    0.93204   0.97315   1.06396   1.24275   1.24275
  Beta virt. eigenvalues --    1.24804   1.44928   1.45067   1.45067   2.15948

 Mulliken charges and spin densities:
               1          2
     1  H    0.018290  -0.973278
     2  H    0.000752   0.994246
     3  F   -0.019042   0.979032
 Sum of Mulliken charges =  -0.00000   1.00000

 Dipole moment (field-independent basis, Debye):
    X=             -0.3341    Y=             -0.0000    Z=             -0.0000  Tot=              0.3341
 Quadrupole moment (field-independent basis, Debye-Ang):
   XX=             -7.6566   YY=             -7.6278   ZZ=             -7.6278
   XY=             -0.0000   XZ=             -0.0000   YZ=             -0.0000

  Exact polarizability:      30.260      -0.000       2.028      -0.000      -0.000       2.028
 Approx polarizability:      25.709      -0.000       1.929      -0.000       0.000       1.929

 ******    2 imaginary frequencies (negative Signs) ******

                      1                      2                      3
                      A                      A                      A
 Frequencies --   -354.8107              -149.3142               123.4512
 Red. masses --      1.0187                 1.0956                 1.0172
 Frc consts  --      0.0756                 0.0144                 0.0091
 IR Inten    --     16.8887                 4.4392                 0.2923

                      4
                      A
 Frequencies --    123.4513
 Red. masses --      1.0172
 Frc consts  --      0.0091
 IR Inten    --      0.2923

 - Thermochemistry -
 -------------------
 Temperature   298.150 Kelvin.  Pressure   1.00000 Atm.
 Atom     1 has atomic number  1 and mass   1.00783

 Molecular mass:    21.01405 amu.
 Principal axes and moments of inertia in atomic units:
                           1         2         3
     Eigenvalues --     0.00000 170.36801 170.36801
           X            1.00000  -0.00000   0.00000
           Y            0.00000   1.00000   0.00000
           Z            0.00000   0.00000   1.00000
 This molecule is a prolate symmetric top.
 Rotational symmetry number  1.
 Rotational temperature (Kelvin)      0.50839
 Rotational constant (GHZ):          10.593193
    2 imaginary frequencies ignored.
 Zero-point vibrational energy       1476.8 (Joules/Mol)
                                    0.35296 (Kcal/Mol)
 Warning -- explicit consideration of   2 degrees of freedom as
           vibrations may cause significant error
 Vibrational temperatures:    177.62   177.62
          (Kelvin)

 Zero-point correction=                           0.000562 (Hartree/Particle)
 Thermal correction to Energy=                    0.004304
 Thermal correction to Enthalpy=                  0.005249
 Thermal correction to Gibbs Free Energy=        -0.021925
 Sum of electronic and zero-point Energies=           -100.759666
 Sum of electronic and thermal Energies=              -100.755925
 Sum of electronic and thermal Enthalpies=            -100.754980
 Sum of electronic and thermal Free Energies=         -100.782153

                     E (Thermal)             CV                S
                      KCal/Mol        Cal/Mol-Kelvin    Cal/Mol-Kelvin
 Total                    2.701              8.827             57.191
 Electronic               0.000              0.000              1.377
 Translational            0.889              2.981             35.068
 Rotational               0.592              1.987             14.654
 Vibrational              1.220              3.859              6.091
 Vibration     1          0.610              1.929              3.046
 Vibration     2          0.610              1.929              3.046

 Normal termination of Gaussian 16 at Fri Aug 22 20:49:36 2025.
