 Gaussian 16, Revision C.01,
 Gaussian 16:  ES64L-G16RevC.01  3-Jul-2019

 -----------------------------------------
 # sp b3lyp/6-311g** Force nosymm scf=(qc)
 -----------------------------------------

 -------------------
 Title Card Required
 -------------------
 Symbolic Z-matrix:
 Charge =  0 Multiplicity = 2

                          Input orientation:
 ---------------------------------------------------------------------
 Center     Atomic      Atomic             Coordinates (Angstroms)
 Number     Number       Type             X           Y           Z
 ---------------------------------------------------------------------
      1          1           0        0.000000    0.000000    0.000000
      2          1           0       -3.850000    0.000000    0.000000
      3          9           0        3.300000    0.000000    0.000000
 ---------------------------------------------------------------------

 SCF Done:  E(UB3LYP) =  -100.759419848     a.u. after   27 cycles

 Alpha  occ. eigenvalues --  -24.74971  -1.20965  -0.54093  -0.45417  -0.45417
 Alpha  occ. eigenvalues --   -0.32356
 Alpha virt. eigenvalues --   -0.06878   0.24046   0.36803   0.88267   0.91738
 Alpha virt. eigenvalues --    0.91738   1.02447   1.25141   1.25141   1.25179
 Alpha virt. eigenvalues --    1.45554   1.45554   1.45912   2.14566   2.41781

  Beta  occ. eigenvalues --  -24.71884  -1.12101  -0.42324  -0.42324  -0.33102
  Beta virt. eigenvalues --   -0.25263  -0.06007   0.23793   0.38150   0.93218
  Beta virt. eigenvalues --    0.93218   0.97256   1.06362   1.24283   1.24283
  Beta virt. eigenvalues --    1.24331   1.46491   1.46640   1.46640   2.14802

 Mulliken charges and spin densities:
               1          2
     1  H    0.019309  -0.977856
     2  H    0.000107   0.999113
     3  F   -0.019416   0.978743
 Sum of Mulliken charges =  -0.00000   1.00000

 Dipole moment (field-independent basis, Debye):
    X=             -0.3312    Y=              0.0000    Z=              0.0000  Tot=              0.3312
 Quadrupole moment (field-independent basis, Debye-Ang):
   XX=             -7.7549   YY=             -7.6149   ZZ=             -7.6149
   XY=              0.0000   XZ=              0.0000   YZ=             -0.0000

  Exact polarizability:      27.445       0.000       2.032       0.000      -0.000       2.032
 Approx polarizability:      23.998       0.000       1.932       0.000       0.000       1.932

 ******    2 imaginary frequencies (negative Signs) ******

                      1                      2                      3
                      A                      A                      A
 Frequencies --   -270.7818               -79.5088                84.1662
 Red. masses --      1.0481                 1.0635                 1.0199
 Frc consts  --      0.0453                 0.0040                 0.0043
 IR Inten    --     20.8511                 0.2261                 0.3484

                      4
                      A
 Frequencies --     84.1663
 Red. masses --      1.0199
 Frc consts  --      0.0043
 IR Inten    --      0.3484

 - Thermochemistry -
 -------------------
 Temperature   298.150 Kelvin.  Pressure   1.00000 Atm.
 Atom     1 has atomic number  1 and mass   1.00783

 Molecular mass:    21.01405 amu.
 Principal axes and moments of inertia in atomic units:
                           1         2         3
     Eigenvalues --     0.00000 204.33441 204.33441
           X            1.00000  -0.00000   0.00000
           Y            0.00000   1.00000   0.00000
           Z            0.00000   0.00000   1.00000
 This molecule is a prolate symmetric top.
 Rotational symmetry number  1.
 Rotational temperature (Kelvin)      0.42388
 Rotational constant (GHZ):           8.832292
    2 imaginary frequencies ignored.
 Zero-point vibrational energy       1006.9 (Joules/Mol)
                                    0.24064 (Kcal/Mol)
 Warning -- explicit consideration of   2 degrees of freedom as
           vibrations may cause significant error
 Vibrational temperatures:    121.10   121.10
          (Kelvin)

 Zero-point correction=                           0.000383 (Hartree/Particle)
 Thermal correction to Energy=                    0.004275
 Thermal correction to Enthalpy=                  0.005219
 Thermal correction to Gibbs Free Energy=        -0.022834
 Sum of electronic and zero-point Energies=           -100.759036
 Sum of electronic and thermal Energies=              -100.755145
 Sum of electronic and thermal Enthalpies=            -100.754201
 Sum of electronic and thermal Free Energies=         -100.782254

                     E (Thermal)             CV                S
                      KCal/Mol        Cal/Mol-Kelvin    Cal/Mol-Kelvin
 Total                    2.682              8.888             59.043
 Electronic               0.000              0.000              1.377
 Translational            0.889              2.981             35.068
 Rotational               0.592              1.987             15.015
 Vibrational              1.201              3.920              7.583
 Vibration     1          0.601              1.960              3.791
 Vibration     2          0.601              1.960              3.791

 Normal termination of Gaussian 16 at Fri Aug 22 20:50:28 2025.
