 Gaussian 16, Revision C.01,
 Gaussian 16:  ES64L-G16RevC.01  3-Jul-2019

 -----------------------------------------
 # sp b3lyp/6-311g** Force nosymm scf=(qc)
 -----------------------------------------

 -------------------
 Title Card Required
 -------------------
 Symbolic Z-matrix:
 Charge =  0 Multiplicity = 2

                          Input orientation:
 ---------------------------------------------------------------------
 Center     Atomic      Atomic             Coordinates (Angstroms)
 Number     Number       Type             X           Y           Z
 ---------------------------------------------------------------------
      1          1           0        0.000000    0.000000    0.000000
      2          1           0       -2.850000    0.000000    0.000000
      3          9           0        2.350000    0.000000    0.000000
 ---------------------------------------------------------------------

 SCF Done:  E(UB3LYP) =  -100.772609005     a.u. after   20 cycles

 Alpha  occ. eigenvalues --  -24.70803  -1.17065  -0.49886  -0.41922  -0.41922
 Alpha  occ. eigenvalues --   -0.33553
 Alpha virt. eigenvalues --   -0.11822   0.24080   0.33590   0.89332   0.94087
 Alpha virt. eigenvalues --    0.94087   1.06562   1.24011   1.24011   1.25383
 Alpha virt. eigenvalues --    1.38551   1.38551   1.46717   2.14915   2.33180

  Beta  occ. eigenvalues --  -24.68054  -1.09270  -0.39188  -0.39188  -0.35992
  Beta virt. eigenvalues --   -0.22728  -0.08416   0.24853   0.36151   0.94467
  Beta virt. eigenvalues --    0.95354   0.95354   1.08784   1.21795   1.21795
  Beta virt. eigenvalues --    1.34895   1.43741   1.43741   1.44286   2.13438

 Mulliken charges and spin densities:
               1          2
     1  H    0.108513  -0.855952
     2  H    0.005536   0.988659
     3  F   -0.114049   0.867292
 Sum of Mulliken charges =   0.00000   1.00000

 Dipole moment (field-independent basis, Debye):
    X=             -1.4301    Y=              0.0000    Z=             -0.0000  Tot=              1.4301
 Quadrupole moment (field-independent basis, Debye-Ang):
   XX=             -9.3247   YY=             -7.5698   ZZ=             -7.5698
   XY=              0.0000   XZ=              0.0000   YZ=              0.0000

  Exact polarizability:      35.033       0.000       2.026       0.000       0.000       2.026
 Approx polarizability:      42.537       0.000       1.921       0.000      -0.000       1.921

 ******    2 imaginary frequencies (negative Signs) ******

                      1                      2                      3
                      A                      A                      A
 Frequencies --   -775.4048              -258.2158               313.5975
 Red. masses --      1.0438                 1.0680                 1.0204
 Frc consts  --      0.3698                 0.0420                 0.0591
 IR Inten    --     84.6954                 5.4076                10.5305

                      4
                      A
 Frequencies --    313.5975
 Red. masses --      1.0204
 Frc consts  --      0.0591
 IR Inten    --     10.5305

 - Thermochemistry -
 -------------------
 Temperature   298.150 Kelvin.  Pressure   1.00000 Atm.
 Atom     1 has atomic number  1 and mass   1.00783

 Molecular mass:    21.01405 amu.
 Principal axes and moments of inertia in atomic units:
                           1         2         3
     Eigenvalues --     0.00000 107.35369 107.35369
           X            1.00000  -0.00000   0.00000
           Y            0.00000   1.00000   0.00000
           Z            0.00000   0.00000   1.00000
 This molecule is a prolate symmetric top.
 Rotational symmetry number  1.
 Rotational temperature (Kelvin)      0.80681
 Rotational constant (GHZ):          16.811171
    2 imaginary frequencies ignored.
 Zero-point vibrational energy       3751.5 (Joules/Mol)
                                    0.89662 (Kcal/Mol)
 Warning -- explicit consideration of   2 degrees of freedom as
           vibrations may cause significant error
 Vibrational temperatures:    451.20   451.20
          (Kelvin)

 Zero-point correction=                           0.001429 (Hartree/Particle)
 Thermal correction to Energy=                    0.004596
 Thermal correction to Enthalpy=                  0.005540
 Thermal correction to Gibbs Free Energy=        -0.019579
 Sum of electronic and zero-point Energies=           -100.771180
 Sum of electronic and thermal Energies=              -100.768013
 Sum of electronic and thermal Enthalpies=            -100.767069
 Sum of electronic and thermal Free Energies=         -100.792188

                     E (Thermal)             CV                S
                      KCal/Mol        Cal/Mol-Kelvin    Cal/Mol-Kelvin
 Total                    2.884              8.263             52.868
 Electronic               0.000              0.000              1.377
 Translational            0.889              2.981             35.068
 Rotational               0.592              1.987             13.736
 Vibrational              1.403              3.295              2.687
 Vibration     1          0.701              1.648              1.343
 Vibration     2          0.701              1.648              1.343

 Normal termination of Gaussian 16 at Fri Aug 22 17:27:08 2025.
