 Gaussian 16, Revision C.01,
 Gaussian 16:  ES64L-G16RevC.01  3-Jul-2019

 -----------------------------------------
 # sp b3lyp/6-311g** Force nosymm scf=(qc)
 -----------------------------------------

 -------------------
 Title Card Required
 -------------------
 Symbolic Z-matrix:
 Charge =  0 Multiplicity = 2

                          Input orientation:
 ---------------------------------------------------------------------
 Center     Atomic      Atomic             Coordinates (Angstroms)
 Number     Number       Type             X           Y           Z
 ---------------------------------------------------------------------
      1          1           0        0.000000    0.000000    0.000000
      2          1           0       -3.650000    0.000000    0.000000
      3          9           0        2.600000    0.000000    0.000000
 ---------------------------------------------------------------------

 SCF Done:  E(UB3LYP) =  -100.765467642     a.u. after   21 cycles

 Alpha  occ. eigenvalues --  -24.72295  -1.18478  -0.51404  -0.43176  -0.43176
 Alpha  occ. eigenvalues --   -0.32762
 Alpha virt. eigenvalues --   -0.09663   0.23555   0.35575   0.89868   0.93314
 Alpha virt. eigenvalues --    0.93314   1.05983   1.24742   1.24742   1.24832
 Alpha virt. eigenvalues --    1.41432   1.41432   1.44173   2.14385   2.37910

  Beta  occ. eigenvalues --  -24.69404  -1.10235  -0.40291  -0.40291  -0.34965
  Beta virt. eigenvalues --   -0.23697  -0.06460   0.23858   0.38020   0.94713
  Beta virt. eigenvalues --    0.94713   0.97034   1.08659   1.22403   1.22403
  Beta virt. eigenvalues --    1.27228   1.46023   1.46273   1.46273   2.13143

 Mulliken charges and spin densities:
               1          2
     1  H    0.076326  -0.912736
     2  H    0.000535   0.998578
     3  F   -0.076861   0.914158
 Sum of Mulliken charges =  -0.00000   1.00000

 Dipole moment (field-independent basis, Debye):
    X=             -1.0291    Y=             -0.0000    Z=              0.0000  Tot=              1.0291
 Quadrupole moment (field-independent basis, Debye-Ang):
   XX=             -9.1348   YY=             -7.5799   ZZ=             -7.5799
   XY=             -0.0000   XZ=              0.0000   YZ=              0.0000

  Exact polarizability:      31.117      -0.000       2.025       0.000       0.000       2.025
 Approx polarizability:      38.108      -0.000       1.921       0.000      -0.000       1.921

 ******    2 imaginary frequencies (negative Signs) ******

                      1                      2                      3
                      A                      A                      A
 Frequencies --   -554.8416              -102.1926               211.9007
 Red. masses --      1.0546                 1.0569                 1.0225
 Frc consts  --      0.1913                 0.0065                 0.0271
 IR Inten    --     71.6977                 0.1704                 5.6071

                      4
                      A
 Frequencies --    211.9007
 Red. masses --      1.0225
 Frc consts  --      0.0271
 IR Inten    --      5.6071

 - Thermochemistry -
 -------------------
 Temperature   298.150 Kelvin.  Pressure   1.00000 Atm.
 Atom     1 has atomic number  1 and mass   1.00783

 Molecular mass:    21.01405 amu.
 Principal axes and moments of inertia in atomic units:
                           1         2         3
     Eigenvalues --     0.00000 151.39656 151.39656
           X            1.00000  -0.00000   0.00000
           Y            0.00000   1.00000   0.00000
           Z            0.00000   0.00000   1.00000
 This molecule is a prolate symmetric top.
 Rotational symmetry number  1.
 Rotational temperature (Kelvin)      0.57210
 Rotational constant (GHZ):          11.920622
    2 imaginary frequencies ignored.
 Zero-point vibrational energy       2534.9 (Joules/Mol)
                                    0.60585 (Kcal/Mol)
 Warning -- explicit consideration of   2 degrees of freedom as
           vibrations may cause significant error
 Vibrational temperatures:    304.88   304.88
          (Kelvin)

 Zero-point correction=                           0.000965 (Hartree/Particle)
 Thermal correction to Energy=                    0.004411
 Thermal correction to Enthalpy=                  0.005355
 Thermal correction to Gibbs Free Energy=        -0.020739
 Sum of electronic and zero-point Energies=           -100.764502
 Sum of electronic and thermal Energies=              -100.761057
 Sum of electronic and thermal Enthalpies=            -100.760113
 Sum of electronic and thermal Free Energies=         -100.786207

                     E (Thermal)             CV                S
                      KCal/Mol        Cal/Mol-Kelvin    Cal/Mol-Kelvin
 Total                    2.768              8.613             54.919
 Electronic               0.000              0.000              1.377
 Translational            0.889              2.981             35.068
 Rotational               0.592              1.987             14.419
 Vibrational              1.286              3.645              4.054
 Vibration     1          0.643              1.823              2.027
 Vibration     2          0.643              1.823              2.027

 Normal termination of Gaussian 16 at Fri Aug 22 18:05:20 2025.
