 Gaussian 16, Revision C.01,
 Gaussian 16:  ES64L-G16RevC.01  3-Jul-2019

 -----------------------------------------
 # sp b3lyp/6-311g** Force nosymm scf=(qc)
 -----------------------------------------

 -------------------
 Title Card Required
 -------------------
 Symbolic Z-matrix:
 Charge =  0 Multiplicity = 2

                          Input orientation:
 ---------------------------------------------------------------------
 Center     Atomic      Atomic             Coordinates (Angstroms)
 Number     Number       Type             X           Y           Z
 ---------------------------------------------------------------------
      1          1           0        0.000000    0.000000    0.000000
      2          1           0       -3.750000    0.000000    0.000000
      3          9           0        2.050000    0.000000    0.000000
 ---------------------------------------------------------------------

 SCF Done:  E(UB3LYP) =  -100.783983387     a.u. after   15 cycles

 Alpha  occ. eigenvalues --  -24.68642  -1.14966  -0.47647  -0.40113  -0.40113
 Alpha  occ. eigenvalues --   -0.33224
 Alpha virt. eigenvalues --   -0.13377   0.22501   0.32150   0.88485   0.94788
 Alpha virt. eigenvalues --    0.94788   1.05683   1.24283   1.24283   1.24305
 Alpha virt. eigenvalues --    1.35966   1.35966   1.58099   2.13796   2.30344

  Beta  occ. eigenvalues --  -24.66193  -1.08103  -0.37696  -0.37696  -0.37633
  Beta virt. eigenvalues --   -0.21074  -0.06541   0.22617   0.38035   0.90142
  Beta virt. eigenvalues --    0.95558   0.95558   1.08104   1.21732   1.21732
  Beta virt. eigenvalues --    1.45941   1.46314   1.46314   1.50438   2.11540

 Mulliken charges and spin densities:
               1          2
     1  H    0.179354  -0.769029
     2  H    0.000810   0.998774
     3  F   -0.180164   0.770255
 Sum of Mulliken charges =  -0.00000   1.00000

 Dipole moment (field-independent basis, Debye):
    X=             -1.8456    Y=             -0.0000    Z=             -0.0000  Tot=              1.8456
 Quadrupole moment (field-independent basis, Debye-Ang):
   XX=            -10.0215   YY=             -7.4975   ZZ=             -7.4975
   XY=             -0.0000   XZ=             -0.0000   YZ=              0.0000

  Exact polarizability:      25.774      -0.000       2.055      -0.000       0.000       2.055
 Approx polarizability:      37.162      -0.000       1.941      -0.000       0.000       1.941

 ******    2 imaginary frequencies (negative Signs) ******

                      1                      2                      3
                      A                      A                      A
 Frequencies --  -1051.6769               -89.6305               446.8004
 Red. masses --      1.0575                 1.0540                 1.0266
 Frc consts  --      0.6891                 0.0050                 0.1207
 IR Inten    --    118.2518                 0.0879                30.6096

                      4
                      A
 Frequencies --    446.8004
 Red. masses --      1.0266
 Frc consts  --      0.1207
 IR Inten    --     30.6096

 - Thermochemistry -
 -------------------
 Temperature   298.150 Kelvin.  Pressure   1.00000 Atm.
 Atom     1 has atomic number  1 and mass   1.00783

 Molecular mass:    21.01405 amu.
 Principal axes and moments of inertia in atomic units:
                           1         2         3
     Eigenvalues --     0.00000 125.55901 125.55901
           X            1.00000  -0.00000   0.00000
           Y            0.00000   1.00000   0.00000
           Z            0.00000   0.00000   1.00000
 This molecule is a prolate symmetric top.
 Rotational symmetry number  1.
 Rotational temperature (Kelvin)      0.68983
 Rotational constant (GHZ):          14.373649
    2 imaginary frequencies ignored.
 Zero-point vibrational energy       5344.9 (Joules/Mol)
                                    1.27747 (Kcal/Mol)
 Warning -- explicit consideration of   2 degrees of freedom as
           vibrations may cause significant error
 Vibrational temperatures:    642.85   642.85
          (Kelvin)

 Zero-point correction=                           0.002036 (Hartree/Particle)
 Thermal correction to Energy=                    0.004929
 Thermal correction to Enthalpy=                  0.005874
 Thermal correction to Gibbs Free Energy=        -0.018883
 Sum of electronic and zero-point Energies=           -100.781948
 Sum of electronic and thermal Energies=              -100.779054
 Sum of electronic and thermal Enthalpies=            -100.778110
 Sum of electronic and thermal Free Energies=         -100.802866

                     E (Thermal)             CV                S
                      KCal/Mol        Cal/Mol-Kelvin    Cal/Mol-Kelvin
 Total                    3.093              7.704             52.104
 Electronic               0.000              0.000              1.377
 Translational            0.889              2.981             35.068
 Rotational               0.592              1.987             14.047
 Vibrational              1.612              2.736              1.611
 Vibration     1          0.806              1.368              0.806
 Vibration     2          0.806              1.368              0.806

 Normal termination of Gaussian 16 at Fri Aug 22 17:01:51 2025.
