 Gaussian 16, Revision C.01,
 Gaussian 16:  ES64L-G16RevC.01  3-Jul-2019

 -----------------------------------------
 # sp b3lyp/6-311g** Force nosymm scf=(qc)
 -----------------------------------------

 -------------------
 Title Card Required
 -------------------
 Symbolic Z-matrix:
 Charge =  0 Multiplicity = 2

                          Input orientation:
 ---------------------------------------------------------------------
 Center     Atomic      Atomic             Coordinates (Angstroms)
 Number     Number       Type             X           Y           Z
 ---------------------------------------------------------------------
      1          1           0        0.000000    0.000000    0.000000
      2          1           0       -1.700000    0.000000    0.000000
      3          9           0        2.550000    0.000000    0.000000
 ---------------------------------------------------------------------

 SCF Done:  E(UB3LYP) =  -100.800110752     a.u. after   23 cycles

 Alpha  occ. eigenvalues --  -24.72770  -1.18917  -0.51909  -0.43573  -0.43573
 Alpha  occ. eigenvalues --   -0.35300
 Alpha virt. eigenvalues --   -0.12116   0.24354   0.30985   0.89482   0.93012
 Alpha virt. eigenvalues --    0.93012   1.03483   1.13105   1.21529   1.21529
 Alpha virt. eigenvalues --    1.35999   1.35999   1.65450   2.14645   2.40847

  Beta  occ. eigenvalues --  -24.69858  -1.10605  -0.40665  -0.40665  -0.35024
  Beta virt. eigenvalues --   -0.24336  -0.11484   0.25992   0.30607   0.94413
  Beta virt. eigenvalues --    0.94413   0.96114   1.06138   1.16521   1.21997
  Beta virt. eigenvalues --    1.21997   1.36645   1.36645   1.66091   2.15646

 Mulliken charges and spin densities:
               1          2
     1  H    0.031226  -0.579284
     2  H    0.036110   0.658368
     3  F   -0.067336   0.920916
 Sum of Mulliken charges =   0.00000   1.00000

 Dipole moment (field-independent basis, Debye):
    X=             -1.1676    Y=             -0.0000    Z=              0.0000  Tot=              1.1676
 Quadrupole moment (field-independent basis, Debye-Ang):
   XX=             -7.4228   YY=             -7.6934   ZZ=             -7.6934
   XY=             -0.0000   XZ=              0.0000   YZ=              0.0000

  Exact polarizability:      62.966      -0.000       2.021       0.000      -0.000       2.021
 Approx polarizability:      78.072       0.000       1.971      -0.000      -0.000       1.971

 ******    2 imaginary frequencies (negative Signs) ******

                      1                      2                      3
                      A                      A                      A
 Frequencies --  -1918.5212              -347.2538               875.7242
 Red. masses --      1.0083                 1.1079                 1.0138
 Frc consts  --      2.1866                 0.0787                 0.4581
 IR Inten    --    237.5258                45.8486                 0.1941

                      4
                      A
 Frequencies --    875.7242
 Red. masses --      1.0138
 Frc consts  --      0.4581
 IR Inten    --      0.1941

 - Thermochemistry -
 -------------------
 Temperature   298.150 Kelvin.  Pressure   1.00000 Atm.
 Atom     1 has atomic number  1 and mass   1.00783

 Molecular mass:    21.01405 amu.
 Principal axes and moments of inertia in atomic units:
                           1         2         3
     Eigenvalues --     0.00000  80.42830  80.42830
           X            1.00000  -0.00000   0.00000
           Y            0.00000   1.00000   0.00000
           Z            0.00000   0.00000   1.00000
 This molecule is a prolate symmetric top.
 Rotational symmetry number  1.
 Rotational temperature (Kelvin)      1.07691
 Rotational constant (GHZ):          22.439131
    2 imaginary frequencies ignored.
 Zero-point vibrational energy      10476.0 (Joules/Mol)
                                    2.50382 (Kcal/Mol)
 Vibrational temperatures:   1259.97  1259.97
          (Kelvin)

 Zero-point correction=                           0.003990 (Hartree/Particle)
 Thermal correction to Energy=                    0.006469
 Thermal correction to Enthalpy=                  0.007413
 Thermal correction to Gibbs Free Energy=        -0.016303
 Sum of electronic and zero-point Energies=           -100.796121
 Sum of electronic and thermal Energies=              -100.793642
 Sum of electronic and thermal Enthalpies=            -100.792698
 Sum of electronic and thermal Free Energies=         -100.816414

                     E (Thermal)             CV                S
                      KCal/Mol        Cal/Mol-Kelvin    Cal/Mol-Kelvin
 Total                    4.059              6.036             49.915
 Electronic               0.000              0.000              1.377
 Translational            0.889              2.981             35.068
 Rotational               0.592              1.987             13.162
 Vibrational              2.578              1.068              0.308

 Normal termination of Gaussian 16 at Fri Aug 22 17:53:30 2025.
