 Gaussian 16, Revision C.01,
 Gaussian 16:  ES64L-G16RevC.01  3-Jul-2019

 -----------------------------------------
 # sp b3lyp/6-311g** Force nosymm scf=(qc)
 -----------------------------------------

 -------------------
 Title Card Required
 -------------------
 Symbolic Z-matrix:
 Charge =  0 Multiplicity = 2

                          Input orientation:
 ---------------------------------------------------------------------
 Center     Atomic      Atomic             Coordinates (Angstroms)
 Number     Number       Type             X           Y           Z
 ---------------------------------------------------------------------
      1          1           0        0.000000    0.000000    0.000000
      2          1           0       -3.950000    0.000000    0.000000
      3          9           0        2.100000    0.000000    0.000000
 ---------------------------------------------------------------------

 SCF Done:  E(UB3LYP) =  -100.781116354     a.u. after   17 cycles

 Alpha  occ. eigenvalues --  -24.69028  -1.15351  -0.48054  -0.40440  -0.40440
 Alpha  occ. eigenvalues --   -0.33075
 Alpha virt. eigenvalues --   -0.13023   0.22749   0.32326   0.88259   0.94708
 Alpha virt. eigenvalues --    0.94708   1.05716   1.24423   1.24427   1.24427
 Alpha virt. eigenvalues --    1.36502   1.36502   1.55848   2.13722   2.31042

  Beta  occ. eigenvalues --  -24.66513  -1.08285  -0.37953  -0.37953  -0.37337
  Beta virt. eigenvalues --   -0.21382  -0.06235   0.22752   0.38063   0.90276
  Beta virt. eigenvalues --    0.95599   0.95599   1.08093   1.21589   1.21589
  Beta virt. eigenvalues --    1.46258   1.46597   1.46597   1.47592   2.11317

 Mulliken charges and spin densities:
               1          2
     1  H    0.167037  -0.790712
     2  H    0.000456   0.999272
     3  F   -0.167493   0.791440
 Sum of Mulliken charges =  -0.00000   1.00000

 Dipole moment (field-independent basis, Debye):
    X=             -1.7583    Y=              0.0000    Z=             -0.0000  Tot=              1.7583
 Quadrupole moment (field-independent basis, Debye-Ang):
   XX=             -9.9899   YY=             -7.5060   ZZ=             -7.5060
   XY=             -0.0000   XZ=              0.0000   YZ=             -0.0000

  Exact polarizability:      25.948      -0.000       2.050       0.000      -0.000       2.050
 Approx polarizability:      37.212      -0.000       1.936       0.000       0.000       1.936

 ******    2 imaginary frequencies (negative Signs) ******

                      1                      2                      3
                      A                      A                      A
 Frequencies --   -981.1716               -70.7894               416.5554
 Red. masses --      1.0577                 1.0538                 1.0271
 Frc consts  --      0.5999                 0.0031                 0.1050
 IR Inten    --    114.5171                 0.0353                26.8843

                      4
                      A
 Frequencies --    416.5554
 Red. masses --      1.0271
 Frc consts  --      0.1050
 IR Inten    --     26.8843

 - Thermochemistry -
 -------------------
 Temperature   298.150 Kelvin.  Pressure   1.00000 Atm.
 Atom     1 has atomic number  1 and mass   1.00783

 Molecular mass:    21.01405 amu.
 Principal axes and moments of inertia in atomic units:
                           1         2         3
     Eigenvalues --     0.00000 136.13935 136.13935
           X            1.00000  -0.00000   0.00000
           Y            0.00000   1.00000   0.00000
           Z            0.00000   0.00000   1.00000
 This molecule is a prolate symmetric top.
 Rotational symmetry number  1.
 Rotational temperature (Kelvin)      0.63622
 Rotational constant (GHZ):          13.256572
    2 imaginary frequencies ignored.
 Zero-point vibrational energy       4983.1 (Joules/Mol)
                                    1.19099 (Kcal/Mol)
 Warning -- explicit consideration of   2 degrees of freedom as
           vibrations may cause significant error
 Vibrational temperatures:    599.33   599.33
          (Kelvin)

 Zero-point correction=                           0.001898 (Hartree/Particle)
 Thermal correction to Energy=                    0.004846
 Thermal correction to Enthalpy=                  0.005790
 Thermal correction to Gibbs Free Energy=        -0.019136
 Sum of electronic and zero-point Energies=           -100.779218
 Sum of electronic and thermal Energies=              -100.776271
 Sum of electronic and thermal Enthalpies=            -100.775327
 Sum of electronic and thermal Free Energies=         -100.800252

                     E (Thermal)             CV                S
                      KCal/Mol        Cal/Mol-Kelvin    Cal/Mol-Kelvin
 Total                    3.041              7.837             52.461
 Electronic               0.000              0.000              1.377
 Translational            0.889              2.981             35.068
 Rotational               0.592              1.987             14.208
 Vibrational              1.559              2.869              1.807
 Vibration     1          0.780              1.434              0.904
 Vibration     2          0.780              1.434              0.904

 Normal termination of Gaussian 16 at Fri Aug 22 17:05:41 2025.
