 Gaussian 16, Revision C.01,
 Gaussian 16:  ES64L-G16RevC.01  3-Jul-2019

 -----------------------------------------
 # sp b3lyp/6-311g** Force nosymm scf=(qc)
 -----------------------------------------

 -------------------
 Title Card Required
 -------------------
 Symbolic Z-matrix:
 Charge =  0 Multiplicity = 2

                          Input orientation:
 ---------------------------------------------------------------------
 Center     Atomic      Atomic             Coordinates (Angstroms)
 Number     Number       Type             X           Y           Z
 ---------------------------------------------------------------------
      1          1           0        0.000000    0.000000    0.000000
      2          1           0       -0.500000    0.000000    0.000000
      3          9           0        2.250000    0.000000    0.000000
 ---------------------------------------------------------------------

 SCF Done:  E(UB3LYP) =  -100.861272645     a.u. after  190 cycles

 Alpha  occ. eigenvalues --  -24.75982  -1.21907  -0.55628  -0.49746  -0.46275
 Alpha  occ. eigenvalues --   -0.46252
 Alpha virt. eigenvalues --    0.11180   0.19124   0.54773   0.90209   0.90801
 Alpha virt. eigenvalues --    0.91875   1.11359   1.11361   1.15884   1.61341
 Alpha virt. eigenvalues --    1.84511   1.98884   1.98885   2.40383   3.65719

  Beta  occ. eigenvalues --  -24.72854  -1.12932  -0.50128  -0.43143  -0.43132
  Beta virt. eigenvalues --   -0.26047   0.11640   0.19618   0.55042   0.92264
  Beta virt. eigenvalues --    0.92324   0.99325   1.11532   1.11532   1.20147
  Beta virt. eigenvalues --    1.61645   1.84708   1.98930   1.98931   2.40644

 Mulliken charges and spin densities:
               1          2
     1  H   -0.020012  -0.008551
     2  H    0.022703   0.021266
     3  F   -0.002691   0.987286
 Sum of Mulliken charges =   0.00000   1.00000

 Dipole moment (field-independent basis, Debye):
    X=             -0.0832    Y=             -0.0000    Z=              0.0000  Tot=              0.0832
 Quadrupole moment (field-independent basis, Debye-Ang):
   XX=             -5.5161   YY=             -6.5772   ZZ=             -6.5574
   XY=             -0.0471   XZ=              0.1337   YZ=             -0.0080

  Exact polarizability:       9.377      -0.012       1.883       0.046      -0.004       1.893
 Approx polarizability:       8.142      -0.020       1.967       0.057      -0.005       1.979

 ******    3 imaginary frequencies (negative Signs) ******

                      1                      2                      3
                      A                      A                      A
 Frequencies --  -4862.9497             -4760.8575               -70.8987
 Red. masses --      1.0088                 1.0088                 1.1085
 Frc consts  --     14.0562                13.4722                 0.0033
 IR Inten    --     24.7547                14.4274                 6.4050

                      4
                      A
 Frequencies --   9949.9384
 Red. masses --      1.0078
 Frc consts  --     58.7863
 IR Inten    --     28.4193

 - Thermochemistry -
 -------------------
 Temperature   298.150 Kelvin.  Pressure   1.00000 Atm.
 Atom     1 has atomic number  1 and mass   1.00783

 Molecular mass:    21.01405 amu.
 Principal axes and moments of inertia in atomic units:
                           1         2         3
     Eigenvalues --     0.00000  41.12231  41.12231
           X            1.00000  -0.00000   0.00000
           Y            0.00000   1.00000   0.00000
           Z            0.00000   0.00000   1.00000
 This molecule is a prolate symmetric top.
 Rotational symmetry number  1.
 Rotational temperature (Kelvin)      2.10625
 Rotational constant (GHZ):          43.887155
    3 imaginary frequencies ignored.
 Zero-point vibrational energy      59513.8 (Joules/Mol)
                                   14.22415 (Kcal/Mol)
 Vibrational temperatures:  14315.74
          (Kelvin)

 Zero-point correction=                           0.022668 (Hartree/Particle)
 Thermal correction to Energy=                    0.025028
 Thermal correction to Enthalpy=                  0.025972
 Thermal correction to Gibbs Free Energy=         0.003035
 Sum of electronic and zero-point Energies=           -100.838605
 Sum of electronic and thermal Energies=              -100.836245
 Sum of electronic and thermal Enthalpies=            -100.835300
 Sum of electronic and thermal Free Energies=         -100.858237

                     E (Thermal)             CV                S
                      KCal/Mol        Cal/Mol-Kelvin    Cal/Mol-Kelvin
 Total                   15.705              4.968             48.275
 Electronic               0.000              0.000              1.377
 Translational            0.889              2.981             35.068
 Rotational               0.592              1.987             11.829
 Vibrational             14.224              0.000              0.000

 Normal termination of Gaussian 16 at Fri Aug 22 17:14:17 2025.
