 Gaussian 16, Revision C.01,
 Gaussian 16:  ES64L-G16RevC.01  3-Jul-2019

 -----------------------------------------
 # sp b3lyp/6-311g** Force nosymm scf=(qc)
 -----------------------------------------

 -------------------
 Title Card Required
 -------------------
 Symbolic Z-matrix:
 Charge =  0 Multiplicity = 2

                          Input orientation:
 ---------------------------------------------------------------------
 Center     Atomic      Atomic             Coordinates (Angstroms)
 Number     Number       Type             X           Y           Z
 ---------------------------------------------------------------------
      1          1           0        0.000000    0.000000    0.000000
      2          1           0       -0.750000    0.000000    0.000000
      3          9           0        2.000000    0.000000    0.000000
 ---------------------------------------------------------------------

 SCF Done:  E(UB3LYP) =  -100.934845701     a.u. after    6 cycles

 Alpha  occ. eigenvalues --  -24.74836  -1.20930  -0.54814  -0.45376  -0.45376
 Alpha  occ. eigenvalues --   -0.44455
 Alpha virt. eigenvalues --    0.07117   0.20339   0.44841   0.90674   0.90674
 Alpha virt. eigenvalues --    0.91845   1.07360   1.07360   1.14770   1.62264
 Alpha virt. eigenvalues --    1.81089   1.81089   1.95679   2.39907   3.28307

  Beta  occ. eigenvalues --  -24.71806  -1.12298  -0.44826  -0.42356  -0.42356
  Beta virt. eigenvalues --   -0.25599   0.07919   0.20907   0.45357   0.92038
  Beta virt. eigenvalues --    0.92038   0.99712   1.08021   1.08021   1.18297
  Beta virt. eigenvalues --    1.63626   1.81435   1.81435   1.96224   2.40629

 Mulliken charges and spin densities:
               1          2
     1  H    0.006400  -0.025922
     2  H    0.028616   0.075696
     3  F   -0.035016   0.950226
 Sum of Mulliken charges =   0.00000   1.00000

 Dipole moment (field-independent basis, Debye):
    X=             -0.4327    Y=             -0.0000    Z=             -0.0000  Tot=              0.4327
 Quadrupole moment (field-independent basis, Debye-Ang):
   XX=             -6.0418   YY=             -6.9118   ZZ=             -6.9118
   XY=             -0.0000   XZ=             -0.0000   YZ=              0.0000

  Exact polarizability:      17.860      -0.000       2.088       0.000       0.000       2.088
 Approx polarizability:      19.899      -0.000       2.149      -0.000      -0.000       2.149

 ******    3 imaginary frequencies (negative Signs) ******

                      1                      2                      3
                      A                      A                      A
 Frequencies --   -352.2973              -352.2973              -185.0705
 Red. masses --      1.0103                 1.0103                 1.1085
 Frc consts  --      0.0739                 0.0739                 0.0224
 IR Inten    --      0.2256                 0.2256                28.4899

                      4
                      A
 Frequencies --   4260.0510
 Red. masses --      1.0078
 Frc consts  --     10.7764
 IR Inten    --    253.8041

 - Thermochemistry -
 -------------------
 Temperature   298.150 Kelvin.  Pressure   1.00000 Atm.
 Atom     1 has atomic number  1 and mass   1.00783

 Molecular mass:    21.01405 amu.
 Principal axes and moments of inertia in atomic units:
                           1         2         3
     Eigenvalues --     0.00000  37.71909  37.71909
           X            1.00000  -0.00000   0.00000
           Y            0.00000   1.00000   0.00000
           Z            0.00000   0.00000   1.00000
 This molecule is a prolate symmetric top.
 Rotational symmetry number  1.
 Rotational temperature (Kelvin)      2.29629
 Rotational constant (GHZ):          47.846888
    3 imaginary frequencies ignored.
 Zero-point vibrational energy      25480.8 (Joules/Mol)
                                    6.09005 (Kcal/Mol)
 Vibrational temperatures:   6129.26
          (Kelvin)

 Zero-point correction=                           0.009705 (Hartree/Particle)
 Thermal correction to Energy=                    0.012066
 Thermal correction to Enthalpy=                  0.013010
 Thermal correction to Gibbs Free Energy=        -0.009846
 Sum of electronic and zero-point Energies=           -100.925141
 Sum of electronic and thermal Energies=              -100.922780
 Sum of electronic and thermal Enthalpies=            -100.921836
 Sum of electronic and thermal Free Energies=         -100.944691

                     E (Thermal)             CV                S
                      KCal/Mol        Cal/Mol-Kelvin    Cal/Mol-Kelvin
 Total                    7.571              4.968             48.103
 Electronic               0.000              0.000              1.377
 Translational            0.889              2.981             35.068
 Rotational               0.592              1.987             11.658
 Vibrational              6.090              0.000              0.000

 Normal termination of Gaussian 16 at Fri Aug 22 16:55:22 2025.
