 Gaussian 16, Revision C.01,
 Gaussian 16:  ES64L-G16RevC.01  3-Jul-2019

 -----------------------------------------
 # sp b3lyp/6-311g** Force nosymm scf=(qc)
 -----------------------------------------

 -------------------
 Title Card Required
 -------------------
 Symbolic Z-matrix:
 Charge =  0 Multiplicity = 2

                          Input orientation:
 ---------------------------------------------------------------------
 Center     Atomic      Atomic             Coordinates (Angstroms)
 Number     Number       Type             X           Y           Z
 ---------------------------------------------------------------------
      1          1           0        0.000000    0.000000    0.000000
      2          1           0       -3.050000    0.000000    0.000000
      3          9           0        1.400000    0.000000    0.000000
 ---------------------------------------------------------------------

 SCF Done:  E(UB3LYP) =  -100.877553440     a.u. after    7 cycles

 Alpha  occ. eigenvalues --  -24.64302  -1.10240  -0.44539  -0.36652  -0.36652
 Alpha  occ. eigenvalues --   -0.34499
 Alpha virt. eigenvalues --   -0.11701   0.21585   0.27777   0.93177   0.93177
 Alpha virt. eigenvalues --    1.03181   1.15730   1.23021   1.23021   1.23476
 Alpha virt. eigenvalues --    1.32720   1.32720   1.72058   2.13803   2.21546

  Beta  occ. eigenvalues --  -24.64269  -1.10153  -0.44441  -0.36621  -0.36621
  Beta virt. eigenvalues --   -0.12755  -0.06705   0.24683   0.37546   0.93167
  Beta virt. eigenvalues --    0.93167   1.03272   1.15877   1.32600   1.32600
  Beta virt. eigenvalues --    1.44919   1.45308   1.45308   1.72130   2.21385

 Mulliken charges and spin densities:
               1          2
     1  H    0.353456  -0.005339
     2  H    0.004751   0.994769
     3  F   -0.358207   0.010570
 Sum of Mulliken charges =  -0.00000   1.00000

 Dipole moment (field-independent basis, Debye):
    X=             -2.5645    Y=             -0.0000    Z=             -0.0000  Tot=              2.5645
 Quadrupole moment (field-independent basis, Debye-Ang):
   XX=             -9.3941   YY=             -7.2652   ZZ=             -7.2652
   XY=              0.0000   XZ=             -0.0000   YZ=             -0.0000

  Exact polarizability:      14.865       0.000       2.238      -0.000       0.000       2.238
 Approx polarizability:      23.938       0.000       2.173      -0.000       0.000       2.173

 ******    2 imaginary frequencies (negative Signs) ******

                      1                      2                      3
                      A                      A                      A
 Frequencies --  -1034.6462              -121.7264              1083.2329
 Red. masses --      1.0556                 1.0559                 1.0294
 Frc consts  --      0.6658                 0.0092                 0.7117
 IR Inten    --     69.2541                 0.5943               121.5030

                      4
                      A
 Frequencies --   1083.2329
 Red. masses --      1.0294
 Frc consts  --      0.7117
 IR Inten    --    121.5030

 - Thermochemistry -
 -------------------
 Temperature   298.150 Kelvin.  Pressure   1.00000 Atm.
 Atom     1 has atomic number  1 and mass   1.00783

 Molecular mass:    21.01405 amu.
 Principal axes and moments of inertia in atomic units:
                           1         2         3
     Eigenvalues --     0.00000  72.41638  72.41638
           X            1.00000  -0.00000   0.00000
           Y            0.00000   1.00000   0.00000
           Z            0.00000   0.00000   1.00000
 This molecule is a prolate symmetric top.
 Rotational symmetry number  1.
 Rotational temperature (Kelvin)      1.19605
 Rotational constant (GHZ):          24.921725
    2 imaginary frequencies ignored.
 Zero-point vibrational energy      12958.3 (Joules/Mol)
                                    3.09712 (Kcal/Mol)
 Vibrational temperatures:   1558.53  1558.53
          (Kelvin)

 Zero-point correction=                           0.004936 (Hartree/Particle)
 Thermal correction to Energy=                    0.007349
 Thermal correction to Enthalpy=                  0.008293
 Thermal correction to Gibbs Free Energy=        -0.015241
 Sum of electronic and zero-point Energies=           -100.872618
 Sum of electronic and thermal Energies=              -100.870204
 Sum of electronic and thermal Enthalpies=            -100.869260
 Sum of electronic and thermal Free Energies=         -100.892795

                     E (Thermal)             CV                S
                      KCal/Mol        Cal/Mol-Kelvin    Cal/Mol-Kelvin
 Total                    4.612              5.557             49.533
 Electronic               0.000              0.000              1.377
 Translational            0.889              2.981             35.068
 Rotational               0.592              1.987             12.954
 Vibrational              3.131              0.589              0.134

 Normal termination of Gaussian 16 at Fri Aug 22 16:20:54 2025.
