 Gaussian 16, Revision C.01,
 Gaussian 16:  ES64L-G16RevC.01  3-Jul-2019

 -----------------------------------------
 # sp b3lyp/6-311g** Force nosymm scf=(qc)
 -----------------------------------------

 -------------------
 Title Card Required
 -------------------
 Symbolic Z-matrix:
 Charge =  0 Multiplicity = 2

                          Input orientation:
 ---------------------------------------------------------------------
 Center     Atomic      Atomic             Coordinates (Angstroms)
 Number     Number       Type             X           Y           Z
 ---------------------------------------------------------------------
      1          1           0        0.000000    0.000000    0.000000
      2          1           0       -3.250000    0.000000    0.000000
      3          9           0        1.550000    0.000000    0.000000
 ---------------------------------------------------------------------

 SCF Done:  E(UB3LYP) =  -100.844123840     a.u. after    7 cycles

 Alpha  occ. eigenvalues --  -24.64410  -1.09714  -0.42864  -0.36392  -0.36392
 Alpha  occ. eigenvalues --   -0.34299
 Alpha virt. eigenvalues --   -0.15314   0.20601   0.27849   0.93866   0.93866
 Alpha virt. eigenvalues --    1.02537   1.07926   1.23216   1.23216   1.23418
 Alpha virt. eigenvalues --    1.30987   1.30987   1.73785   2.13636   2.18631

  Beta  occ. eigenvalues --  -24.64164  -1.09059  -0.42317  -0.36157  -0.36157
  Beta virt. eigenvalues --   -0.16134  -0.07200   0.23148   0.37724   0.93756
  Beta virt. eigenvalues --    0.93756   1.03000   1.07859   1.29678   1.29678
  Beta virt. eigenvalues --    1.45038   1.45497   1.45497   1.73220   2.16632

 Mulliken charges and spin densities:
               1          2
     1  H    0.341390  -0.073930
     2  H    0.003808   0.995894
     3  F   -0.345198   0.078036
 Sum of Mulliken charges =   0.00000   1.00000

 Dipole moment (field-independent basis, Debye):
    X=             -2.6824    Y=             -0.0000    Z=              0.0000  Tot=              2.6824
 Quadrupole moment (field-independent basis, Debye-Ang):
   XX=             -9.9664   YY=             -7.3496   ZZ=             -7.3496
   XY=             -0.0000   XZ=              0.0000   YZ=              0.0000

  Exact polarizability:      18.397      -0.000       2.166       0.000      -0.000       2.166
 Approx polarizability:      33.574      -0.000       2.088       0.000      -0.000       2.088

 ******    2 imaginary frequencies (negative Signs) ******

                      1                      2                      3
                      A                      A                      A
 Frequencies --  -1512.2923              -118.4487               970.3021
 Red. masses --      1.0561                 1.0554                 1.0288
 Frc consts  --      1.4231                 0.0087                 0.5707
 IR Inten    --      6.1529                 0.5196               109.8769

                      4
                      A
 Frequencies --    970.3021
 Red. masses --      1.0288
 Frc consts  --      0.5707
 IR Inten    --    109.8769

 - Thermochemistry -
 -------------------
 Temperature   298.150 Kelvin.  Pressure   1.00000 Atm.
 Atom     1 has atomic number  1 and mass   1.00783

 Molecular mass:    21.01405 amu.
 Principal axes and moments of inertia in atomic units:
                           1         2         3
     Eigenvalues --     0.00000  84.60783  84.60783
           X            1.00000  -0.00000   0.00000
           Y            0.00000   1.00000   0.00000
           Z            0.00000   0.00000   1.00000
 This molecule is a prolate symmetric top.
 Rotational symmetry number  1.
 Rotational temperature (Kelvin)      1.02371
 Rotational constant (GHZ):          21.330663
    2 imaginary frequencies ignored.
 Zero-point vibrational energy      11607.4 (Joules/Mol)
                                    2.77423 (Kcal/Mol)
 Vibrational temperatures:   1396.05  1396.05
          (Kelvin)

 Zero-point correction=                           0.004421 (Hartree/Particle)
 Thermal correction to Energy=                    0.006864
 Thermal correction to Enthalpy=                  0.007808
 Thermal correction to Gibbs Free Energy=        -0.015910
 Sum of electronic and zero-point Energies=           -100.839703
 Sum of electronic and thermal Energies=              -100.837260
 Sum of electronic and thermal Enthalpies=            -100.836316
 Sum of electronic and thermal Free Energies=         -100.860034

                     E (Thermal)             CV                S
                      KCal/Mol        Cal/Mol-Kelvin    Cal/Mol-Kelvin
 Total                    4.307              5.790             49.919
 Electronic               0.000              0.000              1.377
 Translational            0.889              2.981             35.068
 Rotational               0.592              1.987             13.263
 Vibrational              2.826              0.822              0.211

 Normal termination of Gaussian 16 at Fri Aug 22 16:29:17 2025.
