 Gaussian 16, Revision C.01,
 Gaussian 16:  ES64L-G16RevC.01  3-Jul-2019

 -----------------------------------------
 # sp b3lyp/6-311g** Force nosymm scf=(qc)
 -----------------------------------------

 -------------------
 Title Card Required
 -------------------
 Symbolic Z-matrix:
 Charge =  0 Multiplicity = 2

                          Input orientation:
 ---------------------------------------------------------------------
 Center     Atomic      Atomic             Coordinates (Angstroms)
 Number     Number       Type             X           Y           Z
 ---------------------------------------------------------------------
      1          1           0        0.000000    0.000000    0.000000
      2          1           0       -0.500000    0.000000    0.000000
      3          9           0        2.500000    0.000000    0.000000
 ---------------------------------------------------------------------

 SCF Done:  E(UB3LYP) =  -100.862098740     a.u. after   58 cycles

 Alpha  occ. eigenvalues --  -24.76773  -1.22553  -0.55733  -0.49416  -0.46880
 Alpha  occ. eigenvalues --   -0.46479
 Alpha virt. eigenvalues --    0.11281   0.19232   0.56996   0.85722   0.90584
 Alpha virt. eigenvalues --    0.93910   1.12411   1.12436   1.13563   1.61782
 Alpha virt. eigenvalues --    1.85570   1.99949   1.99975   2.38968   3.64534

  Beta  occ. eigenvalues --  -24.73609  -1.13460  -0.49166  -0.43707  -0.43553
  Beta virt. eigenvalues --   -0.26346   0.11392   0.19321   0.57100   0.92078
  Beta virt. eigenvalues --    0.95158   0.95788   1.12424   1.12436   1.17114
  Beta virt. eigenvalues --    1.61791   1.85578   1.99950   1.99974   2.38991

 Mulliken charges and spin densities:
               1          2
     1  H   -0.013902  -0.002977
     2  H   -0.001911   0.000516
     3  F    0.015813   1.002461
 Sum of Mulliken charges =   0.00000   1.00000

 Dipole moment (field-independent basis, Debye):
    X=              0.1343    Y=             -0.0000    Z=             -0.0000  Tot=              0.1343
 Quadrupole moment (field-independent basis, Debye-Ang):
   XX=             -5.9427   YY=             -6.1667   ZZ=             -6.1682
   XY=              0.0000   XZ=              0.0000   YZ=              0.4316

  Exact polarizability:       5.986       0.000       2.060       0.000       0.218       2.059
 Approx polarizability:       6.216       0.000       2.203       0.000       0.278       2.202

 ******    2 imaginary frequencies (negative Signs) ******

                      1                      2                      3
                      A                      A                      A
 Frequencies --  -4815.6764             -4815.0430               224.8818
 Red. masses --      1.0087                 1.0087                 1.1085
 Frc consts  --     13.7818                13.7782                 0.0330
 IR Inten    --      0.1387                 0.2042                 0.2717

                      4
                      A
 Frequencies --   9960.8899
 Red. masses --      1.0078
 Frc consts  --     58.9158
 IR Inten    --      1.7684

 - Thermochemistry -
 -------------------
 Temperature   298.150 Kelvin.  Pressure   1.00000 Atm.
 Atom     1 has atomic number  1 and mass   1.00783

 Molecular mass:    21.01405 amu.
 Principal axes and moments of inertia in atomic units:
                           1         2         3
     Eigenvalues --     0.00000  49.66352  49.66352
           X            1.00000  -0.00000   0.00000
           Y            0.00000   1.00000   0.00000
           Z            0.00000   0.00000   1.00000
 This molecule is a prolate symmetric top.
 Rotational symmetry number  1.
 Rotational temperature (Kelvin)      1.74401
 Rotational constant (GHZ):          36.339373
    2 imaginary frequencies ignored.
 Zero-point vibrational energy      60924.4 (Joules/Mol)
                                   14.56129 (Kcal/Mol)
 Warning -- explicit consideration of   1 degrees of freedom as
           vibrations may cause significant error
 Vibrational temperatures:    323.55 14331.50
          (Kelvin)

 Zero-point correction=                           0.023205 (Hartree/Particle)
 Thermal correction to Energy=                    0.026088
 Thermal correction to Enthalpy=                  0.027032
 Thermal correction to Gibbs Free Energy=         0.003005
 Sum of electronic and zero-point Energies=           -100.838894
 Sum of electronic and thermal Energies=              -100.836011
 Sum of electronic and thermal Enthalpies=            -100.835066
 Sum of electronic and thermal Free Energies=         -100.859093

                     E (Thermal)             CV                S
                      KCal/Mol        Cal/Mol-Kelvin    Cal/Mol-Kelvin
 Total                   16.371              6.771             50.569
 Electronic               0.000              0.000              1.377
 Translational            0.889              2.981             35.068
 Rotational               0.592              1.987             12.204
 Vibrational             14.889              1.803              1.919
 Vibration     1          0.650              1.803              1.919

 Normal termination of Gaussian 16 at Fri Aug 22 17:40:24 2025.
