 Gaussian 16, Revision C.01,
 Gaussian 16:  ES64L-G16RevC.01  3-Jul-2019

 -----------------------------------------
 # sp b3lyp/6-311g** Force nosymm scf=(qc)
 -----------------------------------------

 -------------------
 Title Card Required
 -------------------
 Symbolic Z-matrix:
 Charge =  0 Multiplicity = 2

                          Input orientation:
 ---------------------------------------------------------------------
 Center     Atomic      Atomic             Coordinates (Angstroms)
 Number     Number       Type             X           Y           Z
 ---------------------------------------------------------------------
      1          1           0        0.000000    0.000000    0.000000
      2          1           0       -3.300000    0.000000    0.000000
      3          9           0        1.000000    0.000000    0.000000
 ---------------------------------------------------------------------

 SCF Done:  E(UB3LYP) =  -100.966181702     a.u. after    6 cycles

 Alpha  occ. eigenvalues --  -24.64177  -1.16051  -0.51649  -0.38797  -0.38797
 Alpha  occ. eigenvalues --   -0.33879
 Alpha virt. eigenvalues --    0.00650   0.24232   0.34497   0.94044   0.94044
 Alpha virt. eigenvalues --    0.98579   1.23437   1.23641   1.23641   1.30091
 Alpha virt. eigenvalues --    1.35934   1.35934   1.90330   2.14294   2.33962

  Beta  occ. eigenvalues --  -24.64174  -1.16044  -0.51640  -0.38794  -0.38794
  Beta virt. eigenvalues --   -0.06495   0.01518   0.33700   0.39098   0.94045
  Beta virt. eigenvalues --    0.94045   0.98580   1.29646   1.35931   1.35931
  Beta virt. eigenvalues --    1.49584   1.49584   1.49642   1.90369   2.33890

 Mulliken charges and spin densities:
               1          2
     1  H    0.319393   0.000773
     2  H    0.001494   0.998186
     3  F   -0.320887   0.001041
 Sum of Mulliken charges =   0.00000   1.00000

 Dipole moment (field-independent basis, Debye):
    X=             -2.0457    Y=              0.0000    Z=              0.0000  Tot=              2.0457
 Quadrupole moment (field-independent basis, Debye-Ang):
   XX=             -8.1893   YY=             -6.9619   ZZ=             -6.9619
   XY=              0.0000   XZ=             -0.0000   YZ=              0.0000

  Exact polarizability:       6.966       0.000       2.401      -0.000       0.000       2.401
 Approx polarizability:       8.450      -0.000       2.375       0.000       0.000       2.375

 ******    1 imaginary frequencies (negative Signs) ******

                      1                      2                      3
                      A                      A                      A
 Frequencies --    -58.9589               981.2492               981.2492
 Red. masses --      1.0532                 1.0361                 1.0361
 Frc consts  --      0.0022                 0.5878                 0.5878
 IR Inten    --      0.1014               167.1727               167.1727

                      4
                      A
 Frequencies --   3025.9448
 Red. masses --      1.0584
 Frc consts  --      5.7097
 IR Inten    --     92.8017

 - Thermochemistry -
 -------------------
 Temperature   298.150 Kelvin.  Pressure   1.00000 Atm.
 Atom     1 has atomic number  1 and mass   1.00783

 Molecular mass:    21.01405 amu.
 Principal axes and moments of inertia in atomic units:
                           1         2         3
     Eigenvalues --     0.00000  65.29615  65.29615
           X            1.00000  -0.00000   0.00000
           Y            0.00000   1.00000   0.00000
           Z            0.00000   0.00000   1.00000
 This molecule is a prolate symmetric top.
 Rotational symmetry number  1.
 Rotational temperature (Kelvin)      1.32648
 Rotational constant (GHZ):          27.639321
    1 imaginary frequencies ignored.
 Zero-point vibrational energy      29837.5 (Joules/Mol)
                                    7.13134 (Kcal/Mol)
 Vibrational temperatures:   1411.80  1411.80  4353.66
          (Kelvin)

 Zero-point correction=                           0.011365 (Hartree/Particle)
 Thermal correction to Energy=                    0.013804
 Thermal correction to Enthalpy=                  0.014748
 Thermal correction to Gibbs Free Energy=        -0.008721
 Sum of electronic and zero-point Energies=           -100.954817
 Sum of electronic and thermal Energies=              -100.952378
 Sum of electronic and thermal Enthalpies=            -100.951433
 Sum of electronic and thermal Free Energies=         -100.974903

                     E (Thermal)             CV                S
                      KCal/Mol        Cal/Mol-Kelvin    Cal/Mol-Kelvin
 Total                    8.662              5.765             49.395
 Electronic               0.000              0.000              1.377
 Translational            0.889              2.981             35.068
 Rotational               0.592              1.987             12.748
 Vibrational              7.181              0.797              0.202

 Normal termination of Gaussian 16 at Fri Aug 22 16:01:24 2025.
