 Gaussian 16, Revision C.01,
 Gaussian 16:  ES64L-G16RevC.01  3-Jul-2019

 -----------------------------------------
 # sp b3lyp/6-311g** Force nosymm scf=(qc)
 -----------------------------------------

 -------------------
 Title Card Required
 -------------------
 Symbolic Z-matrix:
 Charge =  0 Multiplicity = 2

                          Input orientation:
 ---------------------------------------------------------------------
 Center     Atomic      Atomic             Coordinates (Angstroms)
 Number     Number       Type             X           Y           Z
 ---------------------------------------------------------------------
      1          1           0        0.000000    0.000000    0.000000
      2          1           0       -3.250000    0.000000    0.000000
      3          9           0        2.900000    0.000000    0.000000
 ---------------------------------------------------------------------

 SCF Done:  E(UB3LYP) =  -100.762143584     a.u. after   24 cycles

 Alpha  occ. eigenvalues --  -24.73711  -1.19798  -0.52829  -0.44361  -0.44361
 Alpha  occ. eigenvalues --   -0.32682
 Alpha virt. eigenvalues --   -0.08857   0.24206   0.35587   0.89715   0.92499
 Alpha virt. eigenvalues --    0.92499   1.04512   1.24836   1.24836   1.25229
 Alpha virt. eigenvalues --    1.42965   1.42965   1.43438   2.15105   2.38970

  Beta  occ. eigenvalues --  -24.70711  -1.11207  -0.41360  -0.41360  -0.34005
  Beta virt. eigenvalues --   -0.24561  -0.07080   0.24286   0.37411   0.93951
  Beta virt. eigenvalues --    0.93951   0.98241   1.08153   1.23329   1.23329
  Beta virt. eigenvalues --    1.24333   1.45237   1.45470   1.45470   2.15199

 Mulliken charges and spin densities:
               1          2
     1  H    0.043949  -0.946618
     2  H    0.000994   0.996140
     3  F   -0.044943   0.950478
 Sum of Mulliken charges =  -0.00000   1.00000

 Dipole moment (field-independent basis, Debye):
    X=             -0.6844    Y=             -0.0000    Z=              0.0000  Tot=              0.6844
 Quadrupole moment (field-independent basis, Debye-Ang):
   XX=             -8.4640   YY=             -7.6093   ZZ=             -7.6093
   XY=             -0.0000   XZ=              0.0000   YZ=              0.0000

  Exact polarizability:      33.479      -0.000       2.023       0.000       0.000       2.023
 Approx polarizability:      35.197      -0.000       1.924       0.000      -0.000       1.924

 ******    2 imaginary frequencies (negative Signs) ******

                      1                      2                      3
                      A                      A                      A
 Frequencies --   -434.2997              -154.2695               158.2045
 Red. masses --      1.0413                 1.0707                 1.0194
 Frc consts  --      0.1157                 0.0150                 0.0150
 IR Inten    --     45.5610                 1.7655                 1.7819

                      4
                      A
 Frequencies --    158.2045
 Red. masses --      1.0194
 Frc consts  --      0.0150
 IR Inten    --      1.7819

 - Thermochemistry -
 -------------------
 Temperature   298.150 Kelvin.  Pressure   1.00000 Atm.
 Atom     1 has atomic number  1 and mass   1.00783

 Molecular mass:    21.01405 amu.
 Principal axes and moments of inertia in atomic units:
                           1         2         3
     Eigenvalues --     0.00000 152.25422 152.25422
           X            1.00000  -0.00000   0.00000
           Y            0.00000   1.00000   0.00000
           Z            0.00000   0.00000   1.00000
 This molecule is a prolate symmetric top.
 Rotational symmetry number  1.
 Rotational temperature (Kelvin)      0.56888
 Rotational constant (GHZ):          11.853472
    2 imaginary frequencies ignored.
 Zero-point vibrational energy       1892.5 (Joules/Mol)
                                    0.45233 (Kcal/Mol)
 Warning -- explicit consideration of   2 degrees of freedom as
           vibrations may cause significant error
 Vibrational temperatures:    227.62   227.62
          (Kelvin)

 Zero-point correction=                           0.000721 (Hartree/Particle)
 Thermal correction to Energy=                    0.004340
 Thermal correction to Enthalpy=                  0.005284
 Thermal correction to Gibbs Free Energy=        -0.021332
 Sum of electronic and zero-point Energies=           -100.761423
 Sum of electronic and thermal Energies=              -100.757804
 Sum of electronic and thermal Enthalpies=            -100.756860
 Sum of electronic and thermal Free Energies=         -100.783476

                     E (Thermal)             CV                S
                      KCal/Mol        Cal/Mol-Kelvin    Cal/Mol-Kelvin
 Total                    2.723              8.755             56.018
 Electronic               0.000              0.000              1.377
 Translational            0.889              2.981             35.068
 Rotational               0.592              1.987             14.430
 Vibrational              1.242              3.787              5.142
 Vibration     1          0.621              1.893              2.571
 Vibration     2          0.621              1.893              2.571

 Normal termination of Gaussian 16 at Fri Aug 22 19:04:32 2025.
