 Gaussian 16, Revision C.01,
 Gaussian 16:  ES64L-G16RevC.01  3-Jul-2019

 -----------------------------------------
 # sp b3lyp/6-311g** Force nosymm scf=(qc)
 -----------------------------------------

 -------------------
 Title Card Required
 -------------------
 Symbolic Z-matrix:
 Charge =  0 Multiplicity = 2

                          Input orientation:
 ---------------------------------------------------------------------
 Center     Atomic      Atomic             Coordinates (Angstroms)
 Number     Number       Type             X           Y           Z
 ---------------------------------------------------------------------
      1          1           0        0.000000    0.000000    0.000000
      2          1           0       -3.150000    0.000000    0.000000
      3          9           0        0.850000    0.000000    0.000000
 ---------------------------------------------------------------------

 SCF Done:  E(UB3LYP) =  -100.965559499     a.u. after    6 cycles

 Alpha  occ. eigenvalues --  -24.63844  -1.20893  -0.55004  -0.40124  -0.40124
 Alpha  occ. eigenvalues --   -0.33872
 Alpha virt. eigenvalues --    0.04368   0.25076   0.42467   0.94347   0.94347
 Alpha virt. eigenvalues --    0.97400   1.23011   1.23651   1.23651   1.31471
 Alpha virt. eigenvalues --    1.38370   1.38370   2.03324   2.14635   2.42932

  Beta  occ. eigenvalues --  -24.63841  -1.20886  -0.54997  -0.40122  -0.40122
  Beta virt. eigenvalues --   -0.06255   0.05293   0.39158   0.42467   0.94348
  Beta virt. eigenvalues --    0.94348   0.97388   1.30056   1.38369   1.38369
  Beta virt. eigenvalues --    1.50444   1.50444   1.50552   2.03405   2.42804

 Mulliken charges and spin densities:
               1          2
     1  H    0.283307   0.001133
     2  H    0.001667   0.997815
     3  F   -0.284974   0.001053
 Sum of Mulliken charges =   0.00000   1.00000

 Dipole moment (field-independent basis, Debye):
    X=             -1.8325    Y=             -0.0000    Z=             -0.0000  Tot=              1.8325
 Quadrupole moment (field-independent basis, Debye-Ang):
   XX=             -7.6991   YY=             -6.8193   ZZ=             -6.8193
   XY=             -0.0000   XZ=             -0.0000   YZ=              0.0000

  Exact polarizability:       5.550      -0.000       2.442       0.000      -0.000       2.442
 Approx polarizability:       6.210       0.000       2.423      -0.000      -0.000       2.423

 ******    3 imaginary frequencies (negative Signs) ******

                      1                      2                      3
                      A                      A                      A
 Frequencies --  -1321.6051             -1321.6051               -51.8429
 Red. masses --      1.0378                 1.0378                 1.0532
 Frc consts  --      1.0680                 1.0680                 0.0017
 IR Inten    --    185.3692               185.3692                 0.1014

                      4
                      A
 Frequencies --   5310.9662
 Red. masses --      1.0583
 Frc consts  --     17.5880
 IR Inten    --    108.2643

 - Thermochemistry -
 -------------------
 Temperature   298.150 Kelvin.  Pressure   1.00000 Atm.
 Atom     1 has atomic number  1 and mass   1.00783

 Molecular mass:    21.01405 amu.
 Principal axes and moments of inertia in atomic units:
                           1         2         3
     Eigenvalues --     0.00000  56.12427  56.12427
           X            1.00000  -0.00000   0.00000
           Y            0.00000   1.00000   0.00000
           Z            0.00000   0.00000   1.00000
 This molecule is a prolate symmetric top.
 Rotational symmetry number  1.
 Rotational temperature (Kelvin)      1.54325
 Rotational constant (GHZ):          32.156161
    3 imaginary frequencies ignored.
 Zero-point vibrational energy      31766.6 (Joules/Mol)
                                    7.59241 (Kcal/Mol)
 Vibrational temperatures:   7641.30
          (Kelvin)

 Zero-point correction=                           0.012099 (Hartree/Particle)
 Thermal correction to Energy=                    0.014460
 Thermal correction to Enthalpy=                  0.015404
 Thermal correction to Gibbs Free Energy=        -0.007827
 Sum of electronic and zero-point Energies=           -100.953460
 Sum of electronic and thermal Energies=              -100.951100
 Sum of electronic and thermal Enthalpies=            -100.950156
 Sum of electronic and thermal Free Energies=         -100.973386

                     E (Thermal)             CV                S
                      KCal/Mol        Cal/Mol-Kelvin    Cal/Mol-Kelvin
 Total                    9.074              4.968             48.893
 Electronic               0.000              0.000              1.377
 Translational            0.889              2.981             35.068
 Rotational               0.592              1.987             12.447
 Vibrational              7.592              0.000              0.000

 Normal termination of Gaussian 16 at Fri Aug 22 15:54:12 2025.
