 Gaussian 16, Revision C.01,
 Gaussian 16:  ES64L-G16RevC.01  3-Jul-2019

 -----------------------------------------
 # sp b3lyp/6-311g** Force nosymm scf=(qc)
 -----------------------------------------

 -------------------
 Title Card Required
 -------------------
 Symbolic Z-matrix:
 Charge =  0 Multiplicity = 2

                          Input orientation:
 ---------------------------------------------------------------------
 Center     Atomic      Atomic             Coordinates (Angstroms)
 Number     Number       Type             X           Y           Z
 ---------------------------------------------------------------------
      1          1           0        0.000000    0.000000    0.000000
      2          1           0       -2.550000    0.000000    0.000000
      3          9           0        2.600000    0.000000    0.000000
 ---------------------------------------------------------------------

 SCF Done:  E(UB3LYP) =  -100.768763547     a.u. after   15 cycles

 Alpha  occ. eigenvalues --  -24.72325  -1.18499  -0.51430  -0.43194  -0.43194
 Alpha  occ. eigenvalues --   -0.33549
 Alpha virt. eigenvalues --   -0.11465   0.24892   0.33392   0.90236   0.93309
 Alpha virt. eigenvalues --    0.93309   1.06273   1.24084   1.24084   1.26589
 Alpha virt. eigenvalues --    1.38645   1.38645   1.42075   2.15012   2.34596

  Beta  occ. eigenvalues --  -24.69432  -1.10251  -0.40307  -0.40307  -0.34948
  Beta virt. eigenvalues --   -0.23742  -0.09318   0.25687   0.34919   0.94709
  Beta virt. eigenvalues --    0.94709   0.97815   1.09452   1.22578   1.22578
  Beta virt. eigenvalues --    1.27950   1.42029   1.42029   1.43464   2.14966

 Mulliken charges and spin densities:
               1          2
     1  H    0.066771  -0.889278
     2  H    0.008652   0.974618
     3  F   -0.075423   0.914660
 Sum of Mulliken charges =  -0.00000   1.00000

 Dipole moment (field-independent basis, Debye):
    X=             -1.1060    Y=             -0.0000    Z=             -0.0000  Tot=              1.1060
 Quadrupole moment (field-independent basis, Debye-Ang):
   XX=             -8.7059   YY=             -7.6187   ZZ=             -7.6187
   XY=             -0.0000   XZ=              0.0000   YZ=              0.0000

  Exact polarizability:      42.952      -0.000       2.015       0.000       0.000       2.015
 Approx polarizability:      45.444      -0.000       1.918       0.000      -0.000       1.918

 ******    2 imaginary frequencies (negative Signs) ******

                      1                      2                      3
                      A                      A                      A
 Frequencies --   -748.9008              -311.6900               292.4439
 Red. masses --      1.0193                 1.0950                 1.0177
 Frc consts  --      0.3368                 0.0627                 0.0513
 IR Inten    --     49.0776                21.8768                 3.6862

                      4
                      A
 Frequencies --    292.4439
 Red. masses --      1.0177
 Frc consts  --      0.0513
 IR Inten    --      3.6862

 - Thermochemistry -
 -------------------
 Temperature   298.150 Kelvin.  Pressure   1.00000 Atm.
 Atom     1 has atomic number  1 and mass   1.00783

 Molecular mass:    21.01405 amu.
 Principal axes and moments of inertia in atomic units:
                           1         2         3
     Eigenvalues --     0.00000 109.41680 109.41680
           X            1.00000  -0.00000   0.00000
           Y            0.00000   1.00000   0.00000
           Z            0.00000   0.00000   1.00000
 This molecule is a prolate symmetric top.
 Rotational symmetry number  1.
 Rotational temperature (Kelvin)      0.79160
 Rotational constant (GHZ):          16.494188
    2 imaginary frequencies ignored.
 Zero-point vibrational energy       3498.4 (Joules/Mol)
                                    0.83614 (Kcal/Mol)
 Warning -- explicit consideration of   2 degrees of freedom as
           vibrations may cause significant error
 Vibrational temperatures:    420.76   420.76
          (Kelvin)

 Zero-point correction=                           0.001332 (Hartree/Particle)
 Thermal correction to Energy=                    0.004552
 Thermal correction to Enthalpy=                  0.005496
 Thermal correction to Gibbs Free Energy=        -0.019752
 Sum of electronic and zero-point Energies=           -100.767431
 Sum of electronic and thermal Energies=              -100.764211
 Sum of electronic and thermal Enthalpies=            -100.763267
 Sum of electronic and thermal Free Energies=         -100.788515

                     E (Thermal)             CV                S
                      KCal/Mol        Cal/Mol-Kelvin    Cal/Mol-Kelvin
 Total                    2.857              8.344             53.139
 Electronic               0.000              0.000              1.377
 Translational            0.889              2.981             35.068
 Rotational               0.592              1.987             13.774
 Vibrational              1.375              3.376              2.920
 Vibration     1          0.688              1.688              1.460
 Vibration     2          0.688              1.688              1.460

 Normal termination of Gaussian 16 at Fri Aug 22 18:04:16 2025.
