 Gaussian 16, Revision C.01,
 Gaussian 16:  ES64L-G16RevC.01  3-Jul-2019

 -----------------------------------------
 # sp b3lyp/6-311g** Force nosymm scf=(qc)
 -----------------------------------------

 -------------------
 Title Card Required
 -------------------
 Symbolic Z-matrix:
 Charge =  0 Multiplicity = 2

                          Input orientation:
 ---------------------------------------------------------------------
 Center     Atomic      Atomic             Coordinates (Angstroms)
 Number     Number       Type             X           Y           Z
 ---------------------------------------------------------------------
      1          1           0        0.000000    0.000000    0.000000
      2          1           0       -2.200000    0.000000    0.000000
      3          9           0        1.200000    0.000000    0.000000
 ---------------------------------------------------------------------

 SCF Done:  E(UB3LYP) =  -100.927025106     a.u. after    7 cycles

 Alpha  occ. eigenvalues --  -24.63935  -1.11986  -0.47726  -0.37188  -0.37188
 Alpha  occ. eigenvalues --   -0.36056
 Alpha virt. eigenvalues --   -0.03945   0.24346   0.28640   0.93506   0.93506
 Alpha virt. eigenvalues --    1.00940   1.16292   1.21402   1.21402   1.35065
 Alpha virt. eigenvalues --    1.35065   1.38950   1.73215   2.12152   2.30463

  Beta  occ. eigenvalues --  -24.63838  -1.11741  -0.47262  -0.37100  -0.37100
  Beta virt. eigenvalues --   -0.13207  -0.00969   0.28560   0.35190   0.93502
  Beta virt. eigenvalues --    0.93502   1.01211   1.24118   1.34736   1.34736
  Beta virt. eigenvalues --    1.41503   1.41503   1.50206   1.73369   2.27491

 Mulliken charges and spin densities:
               1          2
     1  H    0.339473  -0.003974
     2  H    0.018649   0.974951
     3  F   -0.358123   0.029023
 Sum of Mulliken charges =   0.00000   1.00000

 Dipole moment (field-independent basis, Debye):
    X=             -2.5043    Y=              0.0000    Z=              0.0000  Tot=              2.5043
 Quadrupole moment (field-independent basis, Debye-Ang):
   XX=             -8.3696   YY=             -7.1078   ZZ=             -7.1078
   XY=              0.0000   XZ=              0.0000   YZ=              0.0000

  Exact polarizability:      14.391       0.000       2.364      -0.000      -0.000       2.364
 Approx polarizability:      17.989      -0.000       2.325       0.000      -0.000       2.325

 ******    1 imaginary frequencies (negative Signs) ******

                      1                      2                      3
                      A                      A                      A
 Frequencies --   -285.4628               859.5045              1168.7902
 Red. masses --      1.0353                 1.0771                 1.0267
 Frc consts  --      0.0497                 0.4688                 0.8263
 IR Inten    --     22.3848               154.7431               119.3854

                      4
                      A
 Frequencies --   1168.7902
 Red. masses --      1.0267
 Frc consts  --      0.8263
 IR Inten    --    119.3854

 - Thermochemistry -
 -------------------
 Temperature   298.150 Kelvin.  Pressure   1.00000 Atm.
 Atom     1 has atomic number  1 and mass   1.00783

 Molecular mass:    21.01405 amu.
 Principal axes and moments of inertia in atomic units:
                           1         2         3
     Eigenvalues --     0.00000  43.13475  43.13475
           X            1.00000  -0.00000   0.00000
           Y            0.00000   1.00000   0.00000
           Z            0.00000   0.00000   1.00000
 This molecule is a prolate symmetric top.
 Rotational symmetry number  1.
 Rotational temperature (Kelvin)      2.00798
 Rotational constant (GHZ):          41.839613
    1 imaginary frequencies ignored.
 Zero-point vibrational energy      19122.8 (Joules/Mol)
                                    4.57046 (Kcal/Mol)
 Vibrational temperatures:   1236.64  1681.63  1681.63
          (Kelvin)

 Zero-point correction=                           0.007283 (Hartree/Particle)
 Thermal correction to Energy=                    0.009745
 Thermal correction to Enthalpy=                  0.010689
 Thermal correction to Gibbs Free Energy=        -0.012416
 Sum of electronic and zero-point Energies=           -100.919742
 Sum of electronic and thermal Energies=              -100.917280
 Sum of electronic and thermal Enthalpies=            -100.916336
 Sum of electronic and thermal Free Energies=         -100.939441

                     E (Thermal)             CV                S
                      KCal/Mol        Cal/Mol-Kelvin    Cal/Mol-Kelvin
 Total                    6.115              5.978             48.628
 Electronic               0.000              0.000              1.377
 Translational            0.889              2.981             35.068
 Rotational               0.592              1.987             11.924
 Vibrational              4.634              1.010              0.258

 Normal termination of Gaussian 16 at Fri Aug 22 16:10:17 2025.
