 Gaussian 16, Revision C.01,
 Gaussian 16:  ES64L-G16RevC.01  3-Jul-2019

 -----------------------------------------
 # sp b3lyp/6-311g** Force nosymm scf=(qc)
 -----------------------------------------

 -------------------
 Title Card Required
 -------------------
 Symbolic Z-matrix:
 Charge =  0 Multiplicity = 2

                          Input orientation:
 ---------------------------------------------------------------------
 Center     Atomic      Atomic             Coordinates (Angstroms)
 Number     Number       Type             X           Y           Z
 ---------------------------------------------------------------------
      1          1           0        0.000000    0.000000    0.000000
      2          1           0       -1.850000    0.000000    0.000000
      3          9           0        2.700000    0.000000    0.000000
 ---------------------------------------------------------------------

 SCF Done:  E(UB3LYP) =  -100.786677245     a.u. after   23 cycles

 Alpha  occ. eigenvalues --  -24.73224  -1.19337  -0.52345  -0.43948  -0.43948
 Alpha  occ. eigenvalues --   -0.34589
 Alpha virt. eigenvalues --   -0.12293   0.24942   0.31281   0.90202   0.92782
 Alpha virt. eigenvalues --    0.92782   1.04953   1.13147   1.23168   1.23168
 Alpha virt. eigenvalues --    1.35593   1.35593   1.56652   2.12524   2.38152

  Beta  occ. eigenvalues --  -24.70268  -1.10888  -0.40994  -0.40994  -0.34561
  Beta virt. eigenvalues --   -0.24441  -0.11647   0.26262   0.31188   0.94211
  Beta virt. eigenvalues --    0.94211   0.98027   1.07795   1.15111   1.23241
  Beta virt. eigenvalues --    1.23241   1.36500   1.36500   1.57350   2.13589

 Mulliken charges and spin densities:
               1          2
     1  H    0.028874  -0.717103
     2  H    0.027136   0.781697
     3  F   -0.056010   0.935405
 Sum of Mulliken charges =  -0.00000   1.00000

 Dipole moment (field-independent basis, Debye):
    X=             -1.0129    Y=             -0.0000    Z=             -0.0000  Tot=              1.0129
 Quadrupole moment (field-independent basis, Debye-Ang):
   XX=             -7.5456   YY=             -7.7037   ZZ=             -7.7037
   XY=             -0.0000   XZ=             -0.0000   YZ=             -0.0000

  Exact polarizability:      63.165      -0.000       2.007      -0.000      -0.000       2.007
 Approx polarizability:      68.538      -0.000       1.944      -0.000       0.000       1.944

 ******    2 imaginary frequencies (negative Signs) ******

                      1                      2                      3
                      A                      A                      A
 Frequencies --  -1652.6176              -317.5974               700.6218
 Red. masses --      1.0082                 1.1081                 1.0140
 Frc consts  --      1.6223                 0.0659                 0.2933
 IR Inten    --    105.6660                43.8163                 0.2592

                      4
                      A
 Frequencies --    700.6218
 Red. masses --      1.0140
 Frc consts  --      0.2933
 IR Inten    --      0.2592

 - Thermochemistry -
 -------------------
 Temperature   298.150 Kelvin.  Pressure   1.00000 Atm.
 Atom     1 has atomic number  1 and mass   1.00783

 Molecular mass:    21.01405 amu.
 Principal axes and moments of inertia in atomic units:
                           1         2         3
     Eigenvalues --     0.00000  91.67260  91.67260
           X            1.00000  -0.00000   0.00000
           Y            0.00000   1.00000   0.00000
           Z            0.00000   0.00000   1.00000
 This molecule is a prolate symmetric top.
 Rotational symmetry number  1.
 Rotational temperature (Kelvin)      0.94482
 Rotational constant (GHZ):          19.686813
    2 imaginary frequencies ignored.
 Zero-point vibrational energy       8381.3 (Joules/Mol)
                                    2.00318 (Kcal/Mol)
 Vibrational temperatures:   1008.04  1008.04
          (Kelvin)

 Zero-point correction=                           0.003192 (Hartree/Particle)
 Thermal correction to Energy=                    0.005778
 Thermal correction to Enthalpy=                  0.006722
 Thermal correction to Gibbs Free Energy=        -0.017262
 Sum of electronic and zero-point Energies=           -100.783485
 Sum of electronic and thermal Energies=              -100.780900
 Sum of electronic and thermal Enthalpies=            -100.779956
 Sum of electronic and thermal Free Energies=         -100.803939

                     E (Thermal)             CV                S
                      KCal/Mol        Cal/Mol-Kelvin    Cal/Mol-Kelvin
 Total                    3.625              6.624             50.478
 Electronic               0.000              0.000              1.377
 Translational            0.889              2.981             35.068
 Rotational               0.592              1.987             13.422
 Vibrational              2.144              1.656              0.611

 Normal termination of Gaussian 16 at Fri Aug 22 18:25:13 2025.
