 Gaussian 16, Revision C.01,
 Gaussian 16:  ES64L-G16RevC.01  3-Jul-2019

 -----------------------------------------
 # sp b3lyp/6-311g** Force nosymm scf=(qc)
 -----------------------------------------

 -------------------
 Title Card Required
 -------------------
 Symbolic Z-matrix:
 Charge =  0 Multiplicity = 2

                          Input orientation:
 ---------------------------------------------------------------------
 Center     Atomic      Atomic             Coordinates (Angstroms)
 Number     Number       Type             X           Y           Z
 ---------------------------------------------------------------------
      1          1           0        0.000000    0.000000    0.000000
      2          1           0       -0.500000    0.000000    0.000000
      3          9           0        3.950000    0.000000    0.000000
 ---------------------------------------------------------------------

 SCF Done:  E(UB3LYP) =  -100.861418371     a.u. after  109 cycles

 Alpha  occ. eigenvalues --  -24.76165  -1.22054  -0.55258  -0.49319  -0.46428
 Alpha  occ. eigenvalues --   -0.46414
 Alpha virt. eigenvalues --    0.09926   0.18293   0.55887   0.86117   0.90994
 Alpha virt. eigenvalues --    0.92070   1.01279   1.12016   1.12018   1.60942
 Alpha virt. eigenvalues --    1.84194   1.99543   1.99546   2.36049   3.64964

  Beta  occ. eigenvalues --  -24.73010  -1.12979  -0.49318  -0.43264  -0.43250
  Beta virt. eigenvalues --   -0.25906   0.09935   0.18296   0.55928   0.92494
  Beta virt. eigenvalues --    0.93556   0.95583   1.05395   1.12016   1.12018
  Beta virt. eigenvalues --    1.60945   1.84204   1.99543   1.99546   2.36049

 Mulliken charges and spin densities:
               1          2
     1  H   -0.000558  -0.000257
     2  H   -0.001175   0.000072
     3  F    0.001734   1.000185
 Sum of Mulliken charges =   0.00000   1.00000

 Dipole moment (field-independent basis, Debye):
    X=              0.0228    Y=             -0.0000    Z=             -0.0000  Tot=              0.0228
 Quadrupole moment (field-independent basis, Debye-Ang):
   XX=             -6.1982   YY=             -6.5860   ZZ=             -5.7215
   XY=              0.0000   XZ=              0.0000   YZ=              0.0031

  Exact polarizability:       5.265      -0.000       1.799       0.000       0.002       2.265
 Approx polarizability:       5.592       0.000       1.880       0.000       0.002       2.462

 ******    3 imaginary frequencies (negative Signs) ******

                      1                      2                      3
                      A                      A                      A
 Frequencies --  -4836.3511             -4835.6582               -57.6494
 Red. masses --      1.0082                 1.0082                 1.1085
 Frc consts  --     13.8939                13.8899                 0.0022
 IR Inten    --      0.0004                 0.0005                 0.0529

                      4
                      A
 Frequencies --   9960.5488
 Red. masses --      1.0078
 Frc consts  --     58.9117
 IR Inten    --      0.0224

 - Thermochemistry -
 -------------------
 Temperature   298.150 Kelvin.  Pressure   1.00000 Atm.
 Atom     1 has atomic number  1 and mass   1.00783

 Molecular mass:    21.01405 amu.
 Principal axes and moments of inertia in atomic units:
                           1         2         3
     Eigenvalues --     0.00000 115.24375 115.24375
           X            1.00000  -0.00000   0.00000
           Y            0.00000   1.00000   0.00000
           Z            0.00000   0.00000   1.00000
 This molecule is a prolate symmetric top.
 Rotational symmetry number  1.
 Rotational temperature (Kelvin)      0.75157
 Rotational constant (GHZ):          15.660208
    3 imaginary frequencies ignored.
 Zero-point vibrational energy      59577.3 (Joules/Mol)
                                   14.23932 (Kcal/Mol)
 Vibrational temperatures:  14331.01
          (Kelvin)

 Zero-point correction=                           0.022692 (Hartree/Particle)
 Thermal correction to Energy=                    0.025052
 Thermal correction to Enthalpy=                  0.025996
 Thermal correction to Gibbs Free Energy=         0.002087
 Sum of electronic and zero-point Energies=           -100.838727
 Sum of electronic and thermal Energies=              -100.836366
 Sum of electronic and thermal Enthalpies=            -100.835422
 Sum of electronic and thermal Free Energies=         -100.859332

                     E (Thermal)             CV                S
                      KCal/Mol        Cal/Mol-Kelvin    Cal/Mol-Kelvin
 Total                   15.721              4.968             50.322
 Electronic               0.000              0.000              1.377
 Translational            0.889              2.981             35.068
 Rotational               0.592              1.987             13.877
 Vibrational             14.239              0.000              0.000

 Normal termination of Gaussian 16 at Sat Aug 23 01:28:30 2025.
