 Gaussian 16, Revision C.01,
 Gaussian 16:  ES64L-G16RevC.01  3-Jul-2019

 -----------------------------------------
 # sp b3lyp/6-311g** Force nosymm scf=(qc)
 -----------------------------------------

 -------------------
 Title Card Required
 -------------------
 Symbolic Z-matrix:
 Charge =  0 Multiplicity = 2

                          Input orientation:
 ---------------------------------------------------------------------
 Center     Atomic      Atomic             Coordinates (Angstroms)
 Number     Number       Type             X           Y           Z
 ---------------------------------------------------------------------
      1          1           0        0.000000    0.000000    0.000000
      2          1           0       -1.950000    0.000000    0.000000
      3          9           0        1.100000    0.000000    0.000000
 ---------------------------------------------------------------------

 SCF Done:  E(UB3LYP) =  -100.950110497     a.u. after    6 cycles

 Alpha  occ. eigenvalues --  -24.63748  -1.13495  -0.49716  -0.37661  -0.37661
 Alpha  occ. eigenvalues --   -0.36511
 Alpha virt. eigenvalues --    0.00779   0.23712   0.30692   0.93973   0.93973
 Alpha virt. eigenvalues --    0.99680   1.12848   1.20631   1.20631   1.36006
 Alpha virt. eigenvalues --    1.36006   1.48817   1.77871   2.16473   2.34162

  Beta  occ. eigenvalues --  -24.63622  -1.13180  -0.49011  -0.37548  -0.37548
  Beta virt. eigenvalues --   -0.13836   0.03575   0.30258   0.34069   0.93984
  Beta virt. eigenvalues --    0.93984   1.00148   1.21962   1.34565   1.34565
  Beta virt. eigenvalues --    1.40853   1.40853   1.56588   1.80367   2.31453

 Mulliken charges and spin densities:
               1          2
     1  H    0.322022  -0.000738
     2  H    0.023484   0.964577
     3  F   -0.345506   0.036160
 Sum of Mulliken charges =   0.00000   1.00000

 Dipole moment (field-independent basis, Debye):
    X=             -2.4153    Y=              0.0000    Z=             -0.0000  Tot=              2.4153
 Quadrupole moment (field-independent basis, Debye-Ang):
   XX=             -7.9882   YY=             -7.0011   ZZ=             -7.0011
   XY=              0.0000   XZ=             -0.0000   YZ=             -0.0000

  Exact polarizability:      13.203      -0.000       2.427       0.000       0.000       2.427
 Approx polarizability:      15.277       0.000       2.401       0.000       0.000       2.401

 ******    1 imaginary frequencies (negative Signs) ******

                      1                      2                      3
                      A                      A                      A
 Frequencies --   -225.5002              1133.3938              1133.3938
 Red. masses --      1.0469                 1.0261                 1.0261
 Frc consts  --      0.0314                 0.7766                 0.7766
 IR Inten    --      9.5611               118.5095               118.5095

                      4
                      A
 Frequencies --   1815.0670
 Red. masses --      1.0648
 Frc consts  --      2.0669
 IR Inten    --    202.5868

 - Thermochemistry -
 -------------------
 Temperature   298.150 Kelvin.  Pressure   1.00000 Atm.
 Atom     1 has atomic number  1 and mass   1.00783

 Molecular mass:    21.01405 amu.
 Principal axes and moments of inertia in atomic units:
                           1         2         3
     Eigenvalues --     0.00000  34.86185  34.86185
           X            1.00000  -0.00000   0.00000
           Y            0.00000   1.00000   0.00000
           Z            0.00000   0.00000   1.00000
 This molecule is a prolate symmetric top.
 Rotational symmetry number  1.
 Rotational temperature (Kelvin)      2.48449
 Rotational constant (GHZ):          51.768365
    1 imaginary frequencies ignored.
 Zero-point vibrational energy      24414.9 (Joules/Mol)
                                    5.83530 (Kcal/Mol)
 Vibrational temperatures:   1630.70  1630.70  2611.48
          (Kelvin)

 Zero-point correction=                           0.009299 (Hartree/Particle)
 Thermal correction to Energy=                    0.011705
 Thermal correction to Enthalpy=                  0.012649
 Thermal correction to Gibbs Free Energy=        -0.010185
 Sum of electronic and zero-point Energies=           -100.940811
 Sum of electronic and thermal Energies=              -100.938406
 Sum of electronic and thermal Enthalpies=            -100.937462
 Sum of electronic and thermal Free Energies=         -100.960296

                     E (Thermal)             CV                S
                      KCal/Mol        Cal/Mol-Kelvin    Cal/Mol-Kelvin
 Total                    7.345              5.497             48.058
 Electronic               0.000              0.000              1.377
 Translational            0.889              2.981             35.068
 Rotational               0.592              1.987             11.501
 Vibrational              5.864              0.529              0.112

 Normal termination of Gaussian 16 at Fri Aug 22 16:05:18 2025.
