 Gaussian 16, Revision C.01,
 Gaussian 16:  ES64L-G16RevC.01  3-Jul-2019

 -----------------------------------------
 # sp b3lyp/6-311g** Force nosymm scf=(qc)
 -----------------------------------------

 -------------------
 Title Card Required
 -------------------
 Symbolic Z-matrix:
 Charge =  0 Multiplicity = 2

                          Input orientation:
 ---------------------------------------------------------------------
 Center     Atomic      Atomic             Coordinates (Angstroms)
 Number     Number       Type             X           Y           Z
 ---------------------------------------------------------------------
      1          1           0        0.000000    0.000000    0.000000
      2          1           0       -0.950000    0.000000    0.000000
      3          9           0        1.450000    0.000000    0.000000
 ---------------------------------------------------------------------

 SCF Done:  E(UB3LYP) =  -100.931261808     a.u. after    8 cycles

 Alpha  occ. eigenvalues --  -24.68909  -1.16206  -0.53828  -0.40920  -0.40920
 Alpha  occ. eigenvalues --   -0.40629
 Alpha virt. eigenvalues --    0.05141   0.19827   0.36308   0.89495   0.89495
 Alpha virt. eigenvalues --    0.98417   1.07526   1.07526   1.23413   1.65384
 Alpha virt. eigenvalues --    1.66784   1.66784   2.21378   2.33862   2.52429

  Beta  occ. eigenvalues --  -24.66639  -1.10049  -0.45327  -0.38731  -0.38731
  Beta virt. eigenvalues --   -0.23106   0.07390   0.21298   0.38699   0.90533
  Beta virt. eigenvalues --    0.90533   1.03809   1.10724   1.10724   1.27181
  Beta virt. eigenvalues --    1.68719   1.68719   1.68974   2.23559   2.37835

 Mulliken charges and spin densities:
               1          2
     1  H    0.169500  -0.085162
     2  H    0.042694   0.400280
     3  F   -0.212194   0.684882
 Sum of Mulliken charges =   0.00000   1.00000

 Dipole moment (field-independent basis, Debye):
    X=             -1.7145    Y=              0.0000    Z=              0.0000  Tot=              1.7145
 Quadrupole moment (field-independent basis, Debye-Ang):
   XX=             -7.3198   YY=             -6.9476   ZZ=             -6.9476
   XY=              0.0000   XZ=              0.0000   YZ=             -0.0000

  Exact polarizability:      25.798      -0.000       2.388       0.000       0.000       2.388
 Approx polarizability:      36.611      -0.000       2.391       0.000       0.000       2.391

 ******    1 imaginary frequencies (negative Signs) ******

                      1                      2                      3
                      A                      A                      A
 Frequencies --  -1517.1626              1161.4557              1161.4557
 Red. masses --      1.0647                 1.0136                 1.0136
 Frc consts  --      1.4440                 0.8056                 0.8056
 IR Inten    --    672.0722                 4.9205                 4.9205

                      4
                      A
 Frequencies --   1402.3086
 Red. masses --      1.0470
 Frc consts  --      1.2130
 IR Inten    --    331.9605

 - Thermochemistry -
 -------------------
 Temperature   298.150 Kelvin.  Pressure   1.00000 Atm.
 Atom     1 has atomic number  1 and mass   1.00783

 Molecular mass:    21.01405 amu.
 Principal axes and moments of inertia in atomic units:
                           1         2         3
     Eigenvalues --     0.00000  25.73874  25.73874
           X            1.00000  -0.00000   0.00000
           Y            0.00000   1.00000   0.00000
           Z            0.00000   0.00000   1.00000
 This molecule is a prolate symmetric top.
 Rotational symmetry number  1.
 Rotational temperature (Kelvin)      3.36512
 Rotational constant (GHZ):          70.117702
    1 imaginary frequencies ignored.
 Zero-point vibrational energy      22281.8 (Joules/Mol)
                                    5.32547 (Kcal/Mol)
 Vibrational temperatures:   1671.08  1671.08  2017.61
          (Kelvin)

 Zero-point correction=                           0.008487 (Hartree/Particle)
 Thermal correction to Energy=                    0.010894
 Thermal correction to Enthalpy=                  0.011838
 Thermal correction to Gibbs Free Energy=        -0.010711
 Sum of electronic and zero-point Energies=           -100.922775
 Sum of electronic and thermal Energies=              -100.920368
 Sum of electronic and thermal Enthalpies=            -100.919424
 Sum of electronic and thermal Free Energies=         -100.941973

                     E (Thermal)             CV                S
                      KCal/Mol        Cal/Mol-Kelvin    Cal/Mol-Kelvin
 Total                    6.836              5.536             47.458
 Electronic               0.000              0.000              1.377
 Translational            0.889              2.981             35.068
 Rotational               0.592              1.987             10.898
 Vibrational              5.355              0.568              0.115

 Normal termination of Gaussian 16 at Fri Aug 22 16:21:53 2025.
