 Gaussian 16, Revision C.01,
 Gaussian 16:  ES64L-G16RevC.01  3-Jul-2019

 -----------------------------------------
 # sp b3lyp/6-311g** Force nosymm scf=(qc)
 -----------------------------------------

 -------------------
 Title Card Required
 -------------------
 Symbolic Z-matrix:
 Charge =  0 Multiplicity = 2

                          Input orientation:
 ---------------------------------------------------------------------
 Center     Atomic      Atomic             Coordinates (Angstroms)
 Number     Number       Type             X           Y           Z
 ---------------------------------------------------------------------
      1          1           0        0.000000    0.000000    0.000000
      2          1           0       -3.950000    0.000000    0.000000
      3          9           0        2.300000    0.000000    0.000000
 ---------------------------------------------------------------------

 SCF Done:  E(UB3LYP) =  -100.772661242     a.u. after   14 cycles

 Alpha  occ. eigenvalues --  -24.70468  -1.16751  -0.49547  -0.41649  -0.41649
 Alpha  occ. eigenvalues --   -0.32899
 Alpha virt. eigenvalues --   -0.11557   0.23151   0.33970   0.88668   0.94223
 Alpha virt. eigenvalues --    0.94223   1.06075   1.24602   1.24602   1.24608
 Alpha virt. eigenvalues --    1.38563   1.38563   1.48421   2.13903   2.34042

  Beta  occ. eigenvalues --  -24.67757  -1.09073  -0.38955  -0.38955  -0.36260
  Beta virt. eigenvalues --   -0.22468  -0.06157   0.23364   0.38096   0.92727
  Beta virt. eigenvalues --    0.95440   0.95440   1.08200   1.21597   1.21597
  Beta virt. eigenvalues --    1.37152   1.46467   1.46630   1.46630   2.11489

 Mulliken charges and spin densities:
               1          2
     1  H    0.123761  -0.854403
     2  H    0.000360   0.999302
     3  F   -0.124121   0.855101
 Sum of Mulliken charges =   0.00000   1.00000

 Dipole moment (field-independent basis, Debye):
    X=             -1.4450    Y=              0.0000    Z=              0.0000  Tot=              1.4450
 Quadrupole moment (field-independent basis, Debye-Ang):
   XX=             -9.7050   YY=             -7.5402   ZZ=             -7.5402
   XY=              0.0000   XZ=              0.0000   YZ=             -0.0000

  Exact polarizability:      28.085       0.000       2.034       0.000      -0.000       2.034
 Approx polarizability:      38.226       0.000       1.924       0.000       0.000       1.924

 ******    2 imaginary frequencies (negative Signs) ******

                      1                      2                      3
                      A                      A                      A
 Frequencies --   -763.4422               -71.9370               315.0270
 Red. masses --      1.0573                 1.0542                 1.0256
 Frc consts  --      0.3631                 0.0032                 0.0600
 IR Inten    --     97.9240                 0.0350                14.9233

                      4
                      A
 Frequencies --    315.0270
 Red. masses --      1.0256
 Frc consts  --      0.0600
 IR Inten    --     14.9233

 - Thermochemistry -
 -------------------
 Temperature   298.150 Kelvin.  Pressure   1.00000 Atm.
 Atom     1 has atomic number  1 and mass   1.00783

 Molecular mass:    21.01405 amu.
 Principal axes and moments of inertia in atomic units:
                           1         2         3
     Eigenvalues --     0.00000 147.00703 147.00703
           X            1.00000  -0.00000   0.00000
           Y            0.00000   1.00000   0.00000
           Z            0.00000   0.00000   1.00000
 This molecule is a prolate symmetric top.
 Rotational symmetry number  1.
 Rotational temperature (Kelvin)      0.58918
 Rotational constant (GHZ):          12.276564
    2 imaginary frequencies ignored.
 Zero-point vibrational energy       3768.6 (Joules/Mol)
                                    0.90071 (Kcal/Mol)
 Warning -- explicit consideration of   2 degrees of freedom as
           vibrations may cause significant error
 Vibrational temperatures:    453.25   453.25
          (Kelvin)

 Zero-point correction=                           0.001435 (Hartree/Particle)
 Thermal correction to Energy=                    0.004599
 Thermal correction to Enthalpy=                  0.005543
 Thermal correction to Gibbs Free Energy=        -0.019866
 Sum of electronic and zero-point Energies=           -100.771226
 Sum of electronic and thermal Energies=              -100.768062
 Sum of electronic and thermal Enthalpies=            -100.767118
 Sum of electronic and thermal Free Energies=         -100.792527

                     E (Thermal)             CV                S
                      KCal/Mol        Cal/Mol-Kelvin    Cal/Mol-Kelvin
 Total                    2.886              8.258             53.478
 Electronic               0.000              0.000              1.377
 Translational            0.889              2.981             35.068
 Rotational               0.592              1.987             14.361
 Vibrational              1.405              3.290              2.672
 Vibration     1          0.702              1.645              1.336
 Vibration     2          0.702              1.645              1.336

 Normal termination of Gaussian 16 at Fri Aug 22 17:23:37 2025.
