 Gaussian 16, Revision C.01,
 Gaussian 16:  ES64L-G16RevC.01  3-Jul-2019

 -----------------------------------------
 # sp b3lyp/6-311g** Force nosymm scf=(qc)
 -----------------------------------------

 -------------------
 Title Card Required
 -------------------
 Symbolic Z-matrix:
 Charge =  0 Multiplicity = 2

                          Input orientation:
 ---------------------------------------------------------------------
 Center     Atomic      Atomic             Coordinates (Angstroms)
 Number     Number       Type             X           Y           Z
 ---------------------------------------------------------------------
      1          1           0        0.000000    0.000000    0.000000
      2          1           0       -2.800000    0.000000    0.000000
      3          9           0        2.950000    0.000000    0.000000
 ---------------------------------------------------------------------

 SCF Done:  E(UB3LYP) =  -100.763026867     a.u. after   21 cycles

 Alpha  occ. eigenvalues --  -24.73935  -1.20003  -0.53052  -0.44547  -0.44547
 Alpha  occ. eigenvalues --   -0.32873
 Alpha virt. eigenvalues --   -0.09692   0.24940   0.34419   0.89650   0.92367
 Alpha virt. eigenvalues --    0.92367   1.04245   1.24695   1.24695   1.26016
 Alpha virt. eigenvalues --    1.41425   1.41425   1.42221   2.15615   2.37998

  Beta  occ. eigenvalues --  -24.70919  -1.11364  -0.41529  -0.41529  -0.33898
  Beta virt. eigenvalues --   -0.24696  -0.08234   0.25051   0.35978   0.93825
  Beta virt. eigenvalues --    0.93825   0.98321   1.08050   1.23499   1.23499
  Beta virt. eigenvalues --    1.24943   1.43728   1.43728   1.44090   2.16194

 Mulliken charges and spin densities:
               1          2
     1  H    0.037336  -0.942844
     2  H    0.002896   0.987393
     3  F   -0.040232   0.955451
 Sum of Mulliken charges =  -0.00000   1.00000

 Dipole moment (field-independent basis, Debye):
    X=             -0.6478    Y=             -0.0000    Z=             -0.0000  Tot=              0.6478
 Quadrupole moment (field-independent basis, Debye-Ang):
   XX=             -8.2145   YY=             -7.6287   ZZ=             -7.6287
   XY=             -0.0000   XZ=             -0.0000   YZ=              0.0000

  Exact polarizability:      37.935      -0.000       2.019      -0.000      -0.000       2.019
 Approx polarizability:      36.836      -0.000       1.923      -0.000       0.000       1.923

 ******    2 imaginary frequencies (negative Signs) ******

                      1                      2                      3
                      A                      A                      A
 Frequencies --   -523.7107              -218.6709               195.6303
 Red. masses --      1.0183                 1.0961                 1.0173
 Frc consts  --      0.1646                 0.0309                 0.0229
 IR Inten    --     33.0331                10.9243                 1.2012

                      4
                      A
 Frequencies --    195.6303
 Red. masses --      1.0173
 Frc consts  --      0.0229
 IR Inten    --      1.2012

 - Thermochemistry -
 -------------------
 Temperature   298.150 Kelvin.  Pressure   1.00000 Atm.
 Atom     1 has atomic number  1 and mass   1.00783

 Molecular mass:    21.01405 amu.
 Principal axes and moments of inertia in atomic units:
                           1         2         3
     Eigenvalues --     0.00000 137.24797 137.24797
           X            1.00000  -0.00000   0.00000
           Y            0.00000   1.00000   0.00000
           Z            0.00000   0.00000   1.00000
 This molecule is a prolate symmetric top.
 Rotational symmetry number  1.
 Rotational temperature (Kelvin)      0.63108
 Rotational constant (GHZ):          13.149492
    2 imaginary frequencies ignored.
 Zero-point vibrational energy       2340.3 (Joules/Mol)
                                    0.55934 (Kcal/Mol)
 Warning -- explicit consideration of   2 degrees of freedom as
           vibrations may cause significant error
 Vibrational temperatures:    281.47   281.47
          (Kelvin)

 Zero-point correction=                           0.000891 (Hartree/Particle)
 Thermal correction to Energy=                    0.004387
 Thermal correction to Enthalpy=                  0.005331
 Thermal correction to Gibbs Free Energy=        -0.020809
 Sum of electronic and zero-point Energies=           -100.762136
 Sum of electronic and thermal Energies=              -100.758640
 Sum of electronic and thermal Enthalpies=            -100.757696
 Sum of electronic and thermal Free Energies=         -100.783836

                     E (Thermal)             CV                S
                      KCal/Mol        Cal/Mol-Kelvin    Cal/Mol-Kelvin
 Total                    2.753              8.660             55.017
 Electronic               0.000              0.000              1.377
 Translational            0.889              2.981             35.068
 Rotational               0.592              1.987             14.224
 Vibrational              1.272              3.692              4.348
 Vibration     1          0.636              1.846              2.174
 Vibration     2          0.636              1.846              2.174

 Normal termination of Gaussian 16 at Fri Aug 22 19:18:15 2025.
