 Gaussian 16, Revision C.01,
 Gaussian 16:  ES64L-G16RevC.01  3-Jul-2019

 -----------------------------------------
 # sp b3lyp/6-311g** Force nosymm scf=(qc)
 -----------------------------------------

 -------------------
 Title Card Required
 -------------------
 Symbolic Z-matrix:
 Charge =  0 Multiplicity = 2

                          Input orientation:
 ---------------------------------------------------------------------
 Center     Atomic      Atomic             Coordinates (Angstroms)
 Number     Number       Type             X           Y           Z
 ---------------------------------------------------------------------
      1          1           0        0.000000    0.000000    0.000000
      2          1           0       -3.600000    0.000000    0.000000
      3          9           0        2.100000    0.000000    0.000000
 ---------------------------------------------------------------------

 SCF Done:  E(UB3LYP) =  -100.781264045     a.u. after   18 cycles

 Alpha  occ. eigenvalues --  -24.69026  -1.15349  -0.48053  -0.40438  -0.40438
 Alpha  occ. eigenvalues --   -0.33255
 Alpha virt. eigenvalues --   -0.12990   0.22618   0.32750   0.88326   0.94711
 Alpha virt. eigenvalues --    0.94711   1.05792   1.24255   1.24255   1.24327
 Alpha virt. eigenvalues --    1.36476   1.36476   1.55807   2.13984   2.31129

  Beta  occ. eigenvalues --  -24.66511  -1.08282  -0.37951  -0.37951  -0.37332
  Beta virt. eigenvalues --   -0.21385  -0.06764   0.22885   0.37972   0.90399
  Beta virt. eigenvalues --    0.95602   0.95602   1.08148   1.21602   1.21602
  Beta virt. eigenvalues --    1.45428   1.46069   1.46069   1.47803   2.11678

 Mulliken charges and spin densities:
               1          2
     1  H    0.166248  -0.789779
     2  H    0.001125   0.998234
     3  F   -0.167373   0.791544
 Sum of Mulliken charges =  -0.00000   1.00000

 Dipole moment (field-independent basis, Debye):
    X=             -1.7683    Y=             -0.0000    Z=             -0.0000  Tot=              1.7683
 Quadrupole moment (field-independent basis, Debye-Ang):
   XX=             -9.9368   YY=             -7.5089   ZZ=             -7.5089
   XY=              0.0000   XZ=             -0.0000   YZ=              0.0000

  Exact polarizability:      26.767       0.000       2.049      -0.000       0.000       2.049
 Approx polarizability:      37.774       0.000       1.936      -0.000      -0.000       1.936

 ******    2 imaginary frequencies (negative Signs) ******

                      1                      2                      3
                      A                      A                      A
 Frequencies --   -984.4353              -107.3180               415.0381
 Red. masses --      1.0570                 1.0545                 1.0256
 Frc consts  --      0.6035                 0.0072                 0.1041
 IR Inten    --    113.6100                 0.1652                26.1796

                      4
                      A
 Frequencies --    415.0381
 Red. masses --      1.0256
 Frc consts  --      0.1041
 IR Inten    --     26.1796

 - Thermochemistry -
 -------------------
 Temperature   298.150 Kelvin.  Pressure   1.00000 Atm.
 Atom     1 has atomic number  1 and mass   1.00783

 Molecular mass:    21.01405 amu.
 Principal axes and moments of inertia in atomic units:
                           1         2         3
     Eigenvalues --     0.00000 122.30201 122.30201
           X            1.00000  -0.00000   0.00000
           Y            0.00000   1.00000   0.00000
           Z            0.00000   0.00000   1.00000
 This molecule is a prolate symmetric top.
 Rotational symmetry number  1.
 Rotational temperature (Kelvin)      0.70820
 Rotational constant (GHZ):          14.756431
    2 imaginary frequencies ignored.
 Zero-point vibrational energy       4965.0 (Joules/Mol)
                                    1.18665 (Kcal/Mol)
 Warning -- explicit consideration of   2 degrees of freedom as
           vibrations may cause significant error
 Vibrational temperatures:    597.15   597.15
          (Kelvin)

 Zero-point correction=                           0.001891 (Hartree/Particle)
 Thermal correction to Energy=                    0.004842
 Thermal correction to Enthalpy=                  0.005786
 Thermal correction to Gibbs Free Energy=        -0.019044
 Sum of electronic and zero-point Energies=           -100.779373
 Sum of electronic and thermal Energies=              -100.776423
 Sum of electronic and thermal Enthalpies=            -100.775478
 Sum of electronic and thermal Free Energies=         -100.800308

                     E (Thermal)             CV                S
                      KCal/Mol        Cal/Mol-Kelvin    Cal/Mol-Kelvin
 Total                    3.038              7.843             52.259
 Electronic               0.000              0.000              1.377
 Translational            0.889              2.981             35.068
 Rotational               0.592              1.987             13.995
 Vibrational              1.557              2.875              1.818
 Vibration     1          0.778              1.438              0.909
 Vibration     2          0.778              1.438              0.909

 Normal termination of Gaussian 16 at Fri Aug 22 17:05:22 2025.
