 Gaussian 16, Revision C.01,
 Gaussian 16:  ES64L-G16RevC.01  3-Jul-2019

 -----------------------------------------
 # sp b3lyp/6-311g** Force nosymm scf=(qc)
 -----------------------------------------

 -------------------
 Title Card Required
 -------------------
 Symbolic Z-matrix:
 Charge =  0 Multiplicity = 2

                          Input orientation:
 ---------------------------------------------------------------------
 Center     Atomic      Atomic             Coordinates (Angstroms)
 Number     Number       Type             X           Y           Z
 ---------------------------------------------------------------------
      1          1           0        0.000000    0.000000    0.000000
      2          1           0       -1.250000    0.000000    0.000000
      3          9           0        2.700000    0.000000    0.000000
 ---------------------------------------------------------------------

 SCF Done:  E(UB3LYP) =  -100.863451642     a.u. after   95 cycles

 Alpha  occ. eigenvalues --  -24.76877  -1.22676  -0.55851  -0.47186  -0.47006
 Alpha  occ. eigenvalues --   -0.35565
 Alpha virt. eigenvalues --   -0.04733   0.23553   0.34351   0.85734   0.90482
 Alpha virt. eigenvalues --    0.93022   1.06423   1.14275   1.14286   1.19472
 Alpha virt. eigenvalues --    1.52030   1.52041   2.03885   2.30891   2.55243

  Beta  occ. eigenvalues --  -24.73718  -1.13602  -0.44047  -0.43840  -0.35518
  Beta virt. eigenvalues --   -0.26512  -0.04679   0.23594   0.34474   0.91977
  Beta virt. eigenvalues --    0.94300   0.95600   1.10129   1.14292   1.14300
  Beta virt. eigenvalues --    1.19577   1.52042   1.52053   2.03909   2.30913

 Mulliken charges and spin densities:
               1          2
     1  H   -0.001325  -0.001792
     2  H   -0.008704   0.001861
     3  F    0.010029   0.999931
 Sum of Mulliken charges =   0.00000   1.00000

 Dipole moment (field-independent basis, Debye):
    X=              0.1333    Y=             -0.0004    Z=              0.0010  Tot=              0.1333
 Quadrupole moment (field-independent basis, Debye-Ang):
   XX=             -6.1070   YY=             -7.4336   ZZ=             -6.8594
   XY=             -0.0745   XZ=              0.1790   YZ=             -0.2893

  Exact polarizability:      44.416       0.120       2.152      -0.289      -0.155       2.458
 Approx polarizability:      29.059      -0.018       2.191       0.044      -0.193       2.575

 ******    2 imaginary frequencies (negative Signs) ******

                      1                      2                      3
                      A                      A                      A
 Frequencies --   -895.3256              -107.8689              1426.0637
 Red. masses --      1.0084                 1.1078                 1.0113
 Frc consts  --      0.4763                 0.0076                 1.2117
 IR Inten    --    131.7081                 7.0616                 8.0266

                      4
                      A
 Frequencies --   1429.5182
 Red. masses --      1.0113
 Frc consts  --      1.2176
 IR Inten    --      0.0061

 - Thermochemistry -
 -------------------
 Temperature   298.150 Kelvin.  Pressure   1.00000 Atm.
 Atom     1 has atomic number  1 and mass   1.00783

 Molecular mass:    21.01405 amu.
 Principal axes and moments of inertia in atomic units:
                           1         2         3
     Eigenvalues --     0.00000  74.75719  74.75719
           X            1.00000  -0.00000   0.00000
           Y            0.00000   1.00000   0.00000
           Z            0.00000   0.00000   1.00000
 This molecule is a prolate symmetric top.
 Rotational symmetry number  1.
 Rotational temperature (Kelvin)      1.15860
 Rotational constant (GHZ):          24.141372
    2 imaginary frequencies ignored.
 Zero-point vibrational energy      17080.2 (Joules/Mol)
                                    4.08226 (Kcal/Mol)
 Vibrational temperatures:   2051.79  2056.76
          (Kelvin)

 Zero-point correction=                           0.006505 (Hartree/Particle)
 Thermal correction to Energy=                    0.008879
 Thermal correction to Enthalpy=                  0.009823
 Thermal correction to Gibbs Free Energy=        -0.013693
 Sum of electronic and zero-point Energies=           -100.856946
 Sum of electronic and thermal Energies=              -100.854572
 Sum of electronic and thermal Enthalpies=            -100.853628
 Sum of electronic and thermal Free Energies=         -100.877145

                     E (Thermal)             CV                S
                      KCal/Mol        Cal/Mol-Kelvin    Cal/Mol-Kelvin
 Total                    5.572              5.160             49.494
 Electronic               0.000              0.000              1.377
 Translational            0.889              2.981             35.068
 Rotational               0.592              1.987             13.017
 Vibrational              4.091              0.192              0.032

 Normal termination of Gaussian 16 at Fri Aug 22 18:23:11 2025.
