 Gaussian 16, Revision C.01,
 Gaussian 16:  ES64L-G16RevC.01  3-Jul-2019

 -----------------------------------------
 # sp b3lyp/6-311g** Force nosymm scf=(qc)
 -----------------------------------------

 -------------------
 Title Card Required
 -------------------
 Symbolic Z-matrix:
 Charge =  0 Multiplicity = 2

                          Input orientation:
 ---------------------------------------------------------------------
 Center     Atomic      Atomic             Coordinates (Angstroms)
 Number     Number       Type             X           Y           Z
 ---------------------------------------------------------------------
      1          1           0        0.000000    0.000000    0.000000
      2          1           0       -3.700000    0.000000    0.000000
      3          9           0        1.350000    0.000000    0.000000
 ---------------------------------------------------------------------

 SCF Done:  E(UB3LYP) =  -100.889141229     a.u. after    7 cycles

 Alpha  occ. eigenvalues --  -24.64380  -1.10667  -0.45291  -0.36884  -0.36884
 Alpha  occ. eigenvalues --   -0.33751
 Alpha virt. eigenvalues --   -0.10465   0.21036   0.27961   0.93015   0.93015
 Alpha virt. eigenvalues --    1.02646   1.18399   1.23745   1.23760   1.23760
 Alpha virt. eigenvalues --    1.33239   1.33239   1.70696   2.13342   2.22951

  Beta  occ. eigenvalues --  -24.64375  -1.10652  -0.45277  -0.36879  -0.36879
  Beta virt. eigenvalues --   -0.10805  -0.06006   0.24347   0.38454   0.93013
  Beta virt. eigenvalues --    0.93013   1.02661   1.18427   1.33220   1.33220
  Beta virt. eigenvalues --    1.46495   1.46902   1.46902   1.70718   2.22246

 Mulliken charges and spin densities:
               1          2
     1  H    0.358148  -0.000735
     2  H    0.000952   0.998983
     3  F   -0.359100   0.001751
 Sum of Mulliken charges =  -0.00000   1.00000

 Dipole moment (field-independent basis, Debye):
    X=             -2.4568    Y=              0.0000    Z=              0.0000  Tot=              2.4568
 Quadrupole moment (field-independent basis, Debye-Ang):
   XX=             -9.4016   YY=             -7.2325   ZZ=             -7.2325
   XY=              0.0000   XZ=              0.0000   YZ=             -0.0000

  Exact polarizability:      11.981       0.000       2.256      -0.000      -0.000       2.256
 Approx polarizability:      19.576       0.000       2.194       0.000       0.000       2.194

 ******    2 imaginary frequencies (negative Signs) ******

                      1                      2                      3
                      A                      A                      A
 Frequencies --   -872.4412               -53.4938              1131.1674
 Red. masses --      1.0577                 1.0539                 1.0332
 Frc consts  --      0.4743                 0.0018                 0.7789
 IR Inten    --     51.9898                 0.0498               132.4029

                      4
                      A
 Frequencies --   1131.1674
 Red. masses --      1.0332
 Frc consts  --      0.7789
 IR Inten    --    132.4029

 - Thermochemistry -
 -------------------
 Temperature   298.150 Kelvin.  Pressure   1.00000 Atm.
 Atom     1 has atomic number  1 and mass   1.00783

 Molecular mass:    21.01405 amu.
 Principal axes and moments of inertia in atomic units:
                           1         2         3
     Eigenvalues --     0.00000  91.27293  91.27293
           X            1.00000  -0.00000   0.00000
           Y            0.00000   1.00000   0.00000
           Z            0.00000   0.00000   1.00000
 This molecule is a prolate symmetric top.
 Rotational symmetry number  1.
 Rotational temperature (Kelvin)      0.94896
 Rotational constant (GHZ):          19.773017
    2 imaginary frequencies ignored.
 Zero-point vibrational energy      13531.8 (Joules/Mol)
                                    3.23417 (Kcal/Mol)
 Vibrational temperatures:   1627.50  1627.50
          (Kelvin)

 Zero-point correction=                           0.005154 (Hartree/Particle)
 Thermal correction to Energy=                    0.007559
 Thermal correction to Enthalpy=                  0.008503
 Thermal correction to Gibbs Free Energy=        -0.015239
 Sum of electronic and zero-point Energies=           -100.883987
 Sum of electronic and thermal Energies=              -100.881583
 Sum of electronic and thermal Enthalpies=            -100.880639
 Sum of electronic and thermal Free Energies=         -100.904380

                     E (Thermal)             CV                S
                      KCal/Mol        Cal/Mol-Kelvin    Cal/Mol-Kelvin
 Total                    4.743              5.477             49.969
 Electronic               0.000              0.000              1.377
 Translational            0.889              2.981             35.068
 Rotational               0.592              1.987             13.414
 Vibrational              3.262              0.509              0.110

 Normal termination of Gaussian 16 at Fri Aug 22 16:18:45 2025.
