 Gaussian 16, Revision C.01,
 Gaussian 16:  ES64L-G16RevC.01  3-Jul-2019

 -----------------------------------------
 # sp b3lyp/6-311g** Force nosymm scf=(qc)
 -----------------------------------------

 -------------------
 Title Card Required
 -------------------
 Symbolic Z-matrix:
 Charge =  0 Multiplicity = 2

                          Input orientation:
 ---------------------------------------------------------------------
 Center     Atomic      Atomic             Coordinates (Angstroms)
 Number     Number       Type             X           Y           Z
 ---------------------------------------------------------------------
      1          1           0        0.000000    0.000000    0.000000
      2          1           0       -1.000000    0.000000    0.000000
      3          9           0        2.050000    0.000000    0.000000
 ---------------------------------------------------------------------

 SCF Done:  E(UB3LYP) =  -100.910071534     a.u. after    9 cycles

 Alpha  occ. eigenvalues --  -24.73908  -1.20054  -0.53600  -0.44599  -0.44599
 Alpha  occ. eigenvalues --   -0.40876
 Alpha virt. eigenvalues --    0.00670   0.21207   0.38127   0.89982   0.91377
 Alpha virt. eigenvalues --    0.91377   1.07425   1.07425   1.10320   1.47531
 Alpha virt. eigenvalues --    1.63963   1.63963   2.20736   2.34223   2.59496

  Beta  occ. eigenvalues --  -24.70960  -1.11668  -0.41663  -0.41663  -0.40795
  Beta virt. eigenvalues --   -0.25395   0.01794   0.21842   0.38617   0.92711
  Beta virt. eigenvalues --    0.92711   0.97657   1.08282   1.08282   1.13389
  Beta virt. eigenvalues --    1.49642   1.64540   1.64540   2.21869   2.35093

 Mulliken charges and spin densities:
               1          2
     1  H    0.017345  -0.050138
     2  H    0.038545   0.124665
     3  F   -0.055890   0.925473
 Sum of Mulliken charges =   0.00000   1.00000

 Dipole moment (field-independent basis, Debye):
    X=             -0.7385    Y=             -0.0000    Z=             -0.0000  Tot=              0.7385
 Quadrupole moment (field-independent basis, Debye-Ang):
   XX=             -6.4034   YY=             -7.2091   ZZ=             -7.2091
   XY=             -0.0000   XZ=             -0.0000   YZ=             -0.0000

  Exact polarizability:      29.831       0.000       2.156      -0.000       0.000       2.156
 Approx polarizability:      37.570      -0.000       2.183       0.000       0.000       2.183

 ******    1 imaginary frequencies (negative Signs) ******

                      1                      2                      3
                      A                      A                      A
 Frequencies --   -416.4085              1454.5622              1454.5622
 Red. masses --      1.1062                 1.0116                 1.0116
 Frc consts  --      0.1130                 1.2610                 1.2610
 IR Inten    --    109.1459                 0.0316                 0.0316

                      4
                      A
 Frequencies --   1552.8608
 Red. masses --      1.0098
 Frc consts  --      1.4346
 IR Inten    --    461.2841

 - Thermochemistry -
 -------------------
 Temperature   298.150 Kelvin.  Pressure   1.00000 Atm.
 Atom     1 has atomic number  1 and mass   1.00783

 Molecular mass:    21.01405 amu.
 Principal axes and moments of inertia in atomic units:
                           1         2         3
     Eigenvalues --     0.00000  44.11510  44.11510
           X            1.00000  -0.00000   0.00000
           Y            0.00000   1.00000   0.00000
           Z            0.00000   0.00000   1.00000
 This molecule is a prolate symmetric top.
 Rotational symmetry number  1.
 Rotational temperature (Kelvin)      1.96336
 Rotational constant (GHZ):          40.909825
    1 imaginary frequencies ignored.
 Zero-point vibrational energy      26688.6 (Joules/Mol)
                                    6.37873 (Kcal/Mol)
 Vibrational temperatures:   2092.79  2092.79  2234.22
          (Kelvin)

 Zero-point correction=                           0.010165 (Hartree/Particle)
 Thermal correction to Energy=                    0.012541
 Thermal correction to Enthalpy=                  0.013486
 Thermal correction to Gibbs Free Energy=        -0.009536
 Sum of electronic and zero-point Energies=           -100.899906
 Sum of electronic and thermal Energies=              -100.897530
 Sum of electronic and thermal Enthalpies=            -100.896586
 Sum of electronic and thermal Free Energies=         -100.919607

                     E (Thermal)             CV                S
                      KCal/Mol        Cal/Mol-Kelvin    Cal/Mol-Kelvin
 Total                    7.870              5.206             48.452
 Electronic               0.000              0.000              1.377
 Translational            0.889              2.981             35.068
 Rotational               0.592              1.987             11.969
 Vibrational              6.389              0.238              0.038

 Normal termination of Gaussian 16 at Fri Aug 22 16:59:11 2025.
