 Gaussian 16, Revision C.01,
 Gaussian 16:  ES64L-G16RevC.01  3-Jul-2019

 -----------------------------------------
 # sp b3lyp/6-311g** Force nosymm scf=(qc)
 -----------------------------------------

 -------------------
 Title Card Required
 -------------------
 Symbolic Z-matrix:
 Charge =  0 Multiplicity = 2

                          Input orientation:
 ---------------------------------------------------------------------
 Center     Atomic      Atomic             Coordinates (Angstroms)
 Number     Number       Type             X           Y           Z
 ---------------------------------------------------------------------
      1          1           0        0.000000    0.000000    0.000000
      2          1           0       -1.000000    0.000000    0.000000
      3          9           0        2.750000    0.000000    0.000000
 ---------------------------------------------------------------------

 SCF Done:  E(UB3LYP) =  -100.906952761     a.u. after    7 cycles

 Alpha  occ. eigenvalues --  -24.76010  -1.21920  -0.55164  -0.46301  -0.46301
 Alpha  occ. eigenvalues --   -0.39476
 Alpha virt. eigenvalues --    0.00134   0.21271   0.38910   0.89894   0.91031
 Alpha virt. eigenvalues --    0.91031   1.07414   1.08604   1.08604   1.36946
 Alpha virt. eigenvalues --    1.65257   1.65257   2.22917   2.36500   2.58578

  Beta  occ. eigenvalues --  -24.72885  -1.12938  -0.43169  -0.43169  -0.39412
  Beta virt. eigenvalues --   -0.26151   0.00429   0.21471   0.39332   0.92513
  Beta virt. eigenvalues --    0.92513   0.98427   1.08711   1.08711   1.11804
  Beta virt. eigenvalues --    1.37069   1.65340   1.65340   2.23104   2.36612

 Mulliken charges and spin densities:
               1          2
     1  H   -0.010687  -0.009497
     2  H    0.014454   0.020007
     3  F   -0.003768   0.989490
 Sum of Mulliken charges =   0.00000   1.00000

 Dipole moment (field-independent basis, Debye):
    X=             -0.1294    Y=             -0.0000    Z=              0.0000  Tot=              0.1294
 Quadrupole moment (field-independent basis, Debye-Ang):
   XX=             -5.6333   YY=             -7.2674   ZZ=             -7.2674
   XY=             -0.0000   XZ=              0.0000   YZ=             -0.0000

  Exact polarizability:      18.624       0.000       2.066       0.000       0.000       2.066
 Approx polarizability:      21.847       0.000       2.118       0.000       0.000       2.118

 ******    1 imaginary frequencies (negative Signs) ******

                      1                      2                      3
                      A                      A                      A
 Frequencies --   -135.2051              1527.0978              1527.0978
 Red. masses --      1.1085                 1.0102                 1.0102
 Frc consts  --      0.0119                 1.3880                 1.3880
 IR Inten    --      3.3893                 0.1623                 0.1623

                      4
                      A
 Frequencies --   1761.5263
 Red. masses --      1.0078
 Frc consts  --      1.8426
 IR Inten    --     34.2813

 - Thermochemistry -
 -------------------
 Temperature   298.150 Kelvin.  Pressure   1.00000 Atm.
 Atom     1 has atomic number  1 and mass   1.00783

 Molecular mass:    21.01405 amu.
 Principal axes and moments of inertia in atomic units:
                           1         2         3
     Eigenvalues --     0.00000  70.53592  70.53592
           X            1.00000  -0.00000   0.00000
           Y            0.00000   1.00000   0.00000
           Z            0.00000   0.00000   1.00000
 This molecule is a prolate symmetric top.
 Rotational symmetry number  1.
 Rotational temperature (Kelvin)      1.22794
 Rotational constant (GHZ):          25.586131
    1 imaginary frequencies ignored.
 Zero-point vibrational energy      28804.4 (Joules/Mol)
                                    6.88442 (Kcal/Mol)
 Vibrational temperatures:   2197.15  2197.15  2534.44
          (Kelvin)

 Zero-point correction=                           0.010971 (Hartree/Particle)
 Thermal correction to Energy=                    0.013342
 Thermal correction to Enthalpy=                  0.014286
 Thermal correction to Gibbs Free Energy=        -0.009172
 Sum of electronic and zero-point Energies=           -100.895982
 Sum of electronic and thermal Energies=              -100.893611
 Sum of electronic and thermal Enthalpies=            -100.892667
 Sum of electronic and thermal Free Energies=         -100.916125

                     E (Thermal)             CV                S
                      KCal/Mol        Cal/Mol-Kelvin    Cal/Mol-Kelvin
 Total                    8.372              5.133             49.372
 Electronic               0.000              0.000              1.377
 Translational            0.889              2.981             35.068
 Rotational               0.592              1.987             12.901
 Vibrational              6.891              0.165              0.025

 Normal termination of Gaussian 16 at Fri Aug 22 18:29:21 2025.
