 Gaussian 16, Revision C.01,
 Gaussian 16:  ES64L-G16RevC.01  3-Jul-2019

 -----------------------------------------
 # sp b3lyp/6-311g** Force nosymm scf=(qc)
 -----------------------------------------

 -------------------
 Title Card Required
 -------------------
 Symbolic Z-matrix:
 Charge =  0 Multiplicity = 2

                          Input orientation:
 ---------------------------------------------------------------------
 Center     Atomic      Atomic             Coordinates (Angstroms)
 Number     Number       Type             X           Y           Z
 ---------------------------------------------------------------------
      1          1           0        0.000000    0.000000    0.000000
      2          1           0       -0.850000    0.000000    0.000000
      3          9           0        0.550000    0.000000    0.000000
 ---------------------------------------------------------------------

 SCF Done:  E(UB3LYP) =  -100.429406026     a.u. after    7 cycles

 Alpha  occ. eigenvalues --  -24.66590  -1.45140  -0.69146  -0.47415  -0.47415
 Alpha  occ. eigenvalues --   -0.31133
 Alpha virt. eigenvalues --    0.16711   0.20207   0.84428   0.85360   0.85360
 Alpha virt. eigenvalues --    0.92194   1.10714   1.10714   1.48988   1.65628
 Alpha virt. eigenvalues --    1.87272   1.87272   2.29982   2.65865   3.73599

  Beta  occ. eigenvalues --  -24.66104  -1.43444  -0.67082  -0.47032  -0.47032
  Beta virt. eigenvalues --   -0.10382   0.17392   0.27160   0.85817   0.86741
  Beta virt. eigenvalues --    0.86741   0.97086   1.18045   1.18045   1.50053
  Beta virt. eigenvalues --    1.72165   1.93012   1.93012   2.42128   2.75856

 Mulliken charges and spin densities:
               1          2
     1  H    0.240804  -0.029160
     2  H   -0.088718   0.992768
     3  F   -0.152085   0.036392
 Sum of Mulliken charges =   0.00000   1.00000

 Dipole moment (field-independent basis, Debye):
    X=             -0.6330    Y=             -0.0000    Z=             -0.0000  Tot=              0.6330
 Quadrupole moment (field-independent basis, Debye-Ang):
   XX=             -7.3546   YY=             -6.3812   ZZ=             -6.3812
   XY=             -0.0000   XZ=              0.0000   YZ=             -0.0000

  Exact polarizability:       6.678      -0.000       2.463      -0.000      -0.000       2.463
 Approx polarizability:       6.375       0.000       2.545      -0.000      -0.000       2.545

 ******    2 imaginary frequencies (negative Signs) ******

                      1                      2                      3
                      A                      A                      A
 Frequencies --  -7336.6969             -7336.6969              3040.9346
 Red. masses --      1.0240                 1.0240                 1.0555
 Frc consts  --     32.4744                32.4744                 5.7505
 IR Inten    --    165.5620               165.5620               202.8507

                      4
                      A
 Frequencies --  15841.2205
 Red. masses --      1.0561
 Frc consts  --    156.1440
 IR Inten    --     21.8333

 - Thermochemistry -
 -------------------
 Temperature   298.150 Kelvin.  Pressure   1.00000 Atm.
 Atom     1 has atomic number  1 and mass   1.00783

 Molecular mass:    21.01405 amu.
 Principal axes and moments of inertia in atomic units:
                           1         2         3
     Eigenvalues --     0.00000   7.48642   7.48642
           X            1.00000  -0.00000   0.00000
           Y            0.00000   1.00000   0.00000
           Z            0.00000   0.00000   1.00000
 This molecule is a prolate symmetric top.
 Rotational symmetry number  1.
 Rotational temperature (Kelvin)     11.56947
 Rotational constant (GHZ):         241.068687
    2 imaginary frequencies ignored.
 Zero-point vibrational energy     112940.4 (Joules/Mol)
                                   26.99340 (Kcal/Mol)
 Vibrational temperatures:   4375.23 22791.98
          (Kelvin)

 Zero-point correction=                           0.043017 (Hartree/Particle)
 Thermal correction to Energy=                    0.045377
 Thermal correction to Enthalpy=                  0.046321
 Thermal correction to Gibbs Free Energy=         0.024993
 Sum of electronic and zero-point Energies=           -100.386389
 Sum of electronic and thermal Energies=              -100.384029
 Sum of electronic and thermal Enthalpies=            -100.383085
 Sum of electronic and thermal Free Energies=         -100.404413

                     E (Thermal)             CV                S
                      KCal/Mol        Cal/Mol-Kelvin    Cal/Mol-Kelvin
 Total                   28.475              4.968             44.890
 Electronic               0.000              0.000              1.377
 Translational            0.889              2.981             35.068
 Rotational               0.592              1.987              8.444
 Vibrational             26.993              0.000              0.000

 Normal termination of Gaussian 16 at Fri Aug 22 15:38:32 2025.
