 Gaussian 16, Revision C.01,
 Gaussian 16:  ES64L-G16RevC.01  3-Jul-2019

 -----------------------------------------
 # sp b3lyp/6-311g** Force nosymm scf=(qc)
 -----------------------------------------

 -------------------
 Title Card Required
 -------------------
 Symbolic Z-matrix:
 Charge =  0 Multiplicity = 2

                          Input orientation:
 ---------------------------------------------------------------------
 Center     Atomic      Atomic             Coordinates (Angstroms)
 Number     Number       Type             X           Y           Z
 ---------------------------------------------------------------------
      1          1           0        0.000000    0.000000    0.000000
      2          1           0       -1.850000    0.000000    0.000000
      3          9           0        3.000000    0.000000    0.000000
 ---------------------------------------------------------------------

 SCF Done:  E(UB3LYP) =  -100.784232071     a.u. after   23 cycles

 Alpha  occ. eigenvalues --  -24.74508  -1.20533  -0.53629  -0.45031  -0.45031
 Alpha  occ. eigenvalues --   -0.33920
 Alpha virt. eigenvalues --   -0.11777   0.25350   0.31070   0.89613   0.92007
 Alpha virt. eigenvalues --    0.92007   1.03911   1.11147   1.23863   1.23863
 Alpha virt. eigenvalues --    1.36421   1.36421   1.57554   2.13276   2.38741

  Beta  occ. eigenvalues --  -24.71461  -1.11795  -0.41980  -0.41980  -0.33904
  Beta virt. eigenvalues --   -0.25121  -0.11356   0.25880   0.31386   0.93472
  Beta virt. eigenvalues --    0.93472   0.98306   1.07672   1.11518   1.23863
  Beta virt. eigenvalues --    1.23863   1.36986   1.36986   1.58052   2.14348

 Mulliken charges and spin densities:
               1          2
     1  H    0.012288  -0.739554
     2  H    0.017555   0.773966
     3  F   -0.029843   0.965589
 Sum of Mulliken charges =   0.00000   1.00000

 Dipole moment (field-independent basis, Debye):
    X=             -0.6131    Y=              0.0000    Z=              0.0000  Tot=              0.6131
 Quadrupole moment (field-independent basis, Debye-Ang):
   XX=             -7.0411   YY=             -7.7302   ZZ=             -7.7302
   XY=              0.0000   XZ=              0.0000   YZ=              0.0000

  Exact polarizability:      60.362       0.000       2.007       0.000       0.000       2.007
 Approx polarizability:      60.511       0.000       1.946       0.000      -0.000       1.946

 ******    2 imaginary frequencies (negative Signs) ******

                      1                      2                      3
                      A                      A                      A
 Frequencies --  -1645.4409              -233.1343               703.3682
 Red. masses --      1.0079                 1.1084                 1.0132
 Frc consts  --      1.6078                 0.0355                 0.2953
 IR Inten    --     64.2713                27.8448                 0.0225

                      4
                      A
 Frequencies --    703.3682
 Red. masses --      1.0132
 Frc consts  --      0.2953
 IR Inten    --      0.0225

 - Thermochemistry -
 -------------------
 Temperature   298.150 Kelvin.  Pressure   1.00000 Atm.
 Atom     1 has atomic number  1 and mass   1.00783

 Molecular mass:    21.01405 amu.
 Principal axes and moments of inertia in atomic units:
                           1         2         3
     Eigenvalues --     0.00000 106.41229 106.41229
           X            1.00000  -0.00000   0.00000
           Y            0.00000   1.00000   0.00000
           Z            0.00000   0.00000   1.00000
 This molecule is a prolate symmetric top.
 Rotational symmetry number  1.
 Rotational temperature (Kelvin)      0.81395
 Rotational constant (GHZ):          16.959895
    2 imaginary frequencies ignored.
 Zero-point vibrational energy       8414.2 (Joules/Mol)
                                    2.01103 (Kcal/Mol)
 Vibrational temperatures:   1011.99  1011.99
          (Kelvin)

 Zero-point correction=                           0.003205 (Hartree/Particle)
 Thermal correction to Energy=                    0.005788
 Thermal correction to Enthalpy=                  0.006732
 Thermal correction to Gibbs Free Energy=        -0.017390
 Sum of electronic and zero-point Energies=           -100.781027
 Sum of electronic and thermal Energies=              -100.778444
 Sum of electronic and thermal Enthalpies=            -100.777500
 Sum of electronic and thermal Free Energies=         -100.801622

                     E (Thermal)             CV                S
                      KCal/Mol        Cal/Mol-Kelvin    Cal/Mol-Kelvin
 Total                    3.632              6.614             50.768
 Electronic               0.000              0.000              1.377
 Translational            0.889              2.981             35.068
 Rotational               0.592              1.987             13.719
 Vibrational              2.151              1.646              0.604

 Normal termination of Gaussian 16 at Fri Aug 22 19:31:14 2025.
