 Gaussian 16, Revision C.01,
 Gaussian 16:  ES64L-G16RevC.01  3-Jul-2019

 -----------------------------------------
 # sp b3lyp/6-311g** Force nosymm scf=(qc)
 -----------------------------------------

 -------------------
 Title Card Required
 -------------------
 Symbolic Z-matrix:
 Charge =  0 Multiplicity = 2

                          Input orientation:
 ---------------------------------------------------------------------
 Center     Atomic      Atomic             Coordinates (Angstroms)
 Number     Number       Type             X           Y           Z
 ---------------------------------------------------------------------
      1          1           0        0.000000    0.000000    0.000000
      2          1           0       -1.650000    0.000000    0.000000
      3          9           0        3.850000    0.000000    0.000000
 ---------------------------------------------------------------------

 SCF Done:  E(UB3LYP) =  -100.800033957     a.u. after   48 cycles

 Alpha  occ. eigenvalues --  -24.76217  -1.22117  -0.55321  -0.46495  -0.46477
 Alpha  occ. eigenvalues --   -0.33167
 Alpha virt. eigenvalues --   -0.10433   0.25587   0.30769   0.86046   0.90923
 Alpha virt. eigenvalues --    0.91382   1.00917   1.06947   1.23194   1.23196
 Alpha virt. eigenvalues --    1.38791   1.38794   1.71004   2.18075   2.42563

  Beta  occ. eigenvalues --  -24.73062  -1.13045  -0.43335  -0.43315  -0.33160
  Beta virt. eigenvalues --   -0.25972  -0.10460   0.25574   0.30799   0.92424
  Beta virt. eigenvalues --    0.92851   0.95513   1.05052   1.06944   1.23190
  Beta virt. eigenvalues --    1.23193   1.38783   1.38785   1.71019   2.18180

 Mulliken charges and spin densities:
               1          2
     1  H    0.000880  -0.540915
     2  H   -0.001847   0.540891
     3  F    0.000966   1.000023
 Sum of Mulliken charges =   0.00000   1.00000

 Dipole moment (field-independent basis, Debye):
    X=              0.0254    Y=             -0.0000    Z=             -0.0000  Tot=              0.0254
 Quadrupole moment (field-independent basis, Debye-Ang):
   XX=             -6.5309   YY=             -7.3360   ZZ=             -7.3394
   XY=              0.0000   XZ=              0.0000   YZ=              0.4323

  Exact polarizability:      23.693       0.000       2.257       0.000       0.233       2.255
 Approx polarizability:      39.570       0.000       2.284       0.000       0.291       2.281

 ******    2 imaginary frequencies (negative Signs) ******

                      1                      2                      3
                      A                      A                      A
 Frequencies --  -1988.2570               -50.4094               981.4788
 Red. masses --      1.0078                 1.1085                 1.0109
 Frc consts  --      2.3474                 0.0017                 0.5737
 IR Inten    --      0.0106                 0.0514                 0.0016

                      4
                      A
 Frequencies --    981.5239
 Red. masses --      1.0109
 Frc consts  --      0.5738
 IR Inten    --      0.0015

 - Thermochemistry -
 -------------------
 Temperature   298.150 Kelvin.  Pressure   1.00000 Atm.
 Atom     1 has atomic number  1 and mass   1.00783

 Molecular mass:    21.01405 amu.
 Principal axes and moments of inertia in atomic units:
                           1         2         3
     Eigenvalues --     0.00000 147.12658 147.12658
           X            1.00000  -0.00000   0.00000
           Y            0.00000   1.00000   0.00000
           Z            0.00000   0.00000   1.00000
 This molecule is a prolate symmetric top.
 Rotational symmetry number  1.
 Rotational temperature (Kelvin)      0.58870
 Rotational constant (GHZ):          12.266588
    2 imaginary frequencies ignored.
 Zero-point vibrational energy      11741.4 (Joules/Mol)
                                    2.80625 (Kcal/Mol)
 Vibrational temperatures:   1412.13  1412.19
          (Kelvin)

 Zero-point correction=                           0.004472 (Hartree/Particle)
 Thermal correction to Energy=                    0.006912
 Thermal correction to Enthalpy=                  0.007856
 Thermal correction to Gibbs Free Energy=        -0.016380
 Sum of electronic and zero-point Energies=           -100.795562
 Sum of electronic and thermal Energies=              -100.793122
 Sum of electronic and thermal Enthalpies=            -100.792178
 Sum of electronic and thermal Free Energies=         -100.816414

                     E (Thermal)             CV                S
                      KCal/Mol        Cal/Mol-Kelvin    Cal/Mol-Kelvin
 Total                    4.337              5.764             51.009
 Electronic               0.000              0.000              1.377
 Translational            0.889              2.981             35.068
 Rotational               0.592              1.987             14.362
 Vibrational              2.856              0.796              0.202

 Normal termination of Gaussian 16 at Sat Aug 23 01:03:36 2025.
