 Gaussian 16, Revision C.01,
 Gaussian 16:  ES64L-G16RevC.01  3-Jul-2019

 -----------------------------------------
 # sp b3lyp/6-311g** Force nosymm scf=(qc)
 -----------------------------------------

 -------------------
 Title Card Required
 -------------------
 Symbolic Z-matrix:
 Charge =  0 Multiplicity = 2

                          Input orientation:
 ---------------------------------------------------------------------
 Center     Atomic      Atomic             Coordinates (Angstroms)
 Number     Number       Type             X           Y           Z
 ---------------------------------------------------------------------
      1          1           0        0.000000    0.000000    0.000000
      2          1           0       -2.350000    0.000000    0.000000
      3          9           0        2.100000    0.000000    0.000000
 ---------------------------------------------------------------------

 SCF Done:  E(UB3LYP) =  -100.786555942     a.u. after   18 cycles

 Alpha  occ. eigenvalues --  -24.68906  -1.15224  -0.47942  -0.40315  -0.40315
 Alpha  occ. eigenvalues --   -0.35008
 Alpha virt. eigenvalues --   -0.13560   0.24284   0.31479   0.89029   0.94824
 Alpha virt. eigenvalues --    0.94824   1.06236   1.22712   1.22712   1.26851
 Alpha virt. eigenvalues --    1.35179   1.35179   1.54915   2.13008   2.29529

  Beta  occ. eigenvalues --  -24.66394  -1.08163  -0.37830  -0.37830  -0.37070
  Beta virt. eigenvalues --   -0.21495  -0.10489   0.25579   0.33896   0.92143
  Beta virt. eigenvalues --    0.95741   0.95741   1.08854   1.22147   1.22147
  Beta virt. eigenvalues --    1.39932   1.39932   1.42641   1.47771   2.12767

 Mulliken charges and spin densities:
               1          2
     1  H    0.142947  -0.745832
     2  H    0.022684   0.955087
     3  F   -0.165632   0.790745
 Sum of Mulliken charges =   0.00000   1.00000

 Dipole moment (field-independent basis, Debye):
    X=             -1.9889    Y=              0.0000    Z=             -0.0000  Tot=              1.9889
 Quadrupole moment (field-independent basis, Debye-Ang):
   XX=             -9.1566   YY=             -7.5549   ZZ=             -7.5549
   XY=              0.0000   XZ=             -0.0000   YZ=             -0.0000

  Exact polarizability:      42.832       0.000       2.043      -0.000       0.000       2.043
 Approx polarizability:      49.504      -0.000       1.939       0.000       0.000       1.939

 ******    2 imaginary frequencies (negative Signs) ******

                      1                      2                      3
                      A                      A                      A
 Frequencies --  -1160.5064              -449.8457               483.2055
 Red. masses --      1.0313                 1.0814                 1.0194
 Frc consts  --      0.8184                 0.1289                 0.1402
 IR Inten    --     79.3359                26.7578                15.9230

                      4
                      A
 Frequencies --    483.2055
 Red. masses --      1.0194
 Frc consts  --      0.1402
 IR Inten    --     15.9230

 - Thermochemistry -
 -------------------
 Temperature   298.150 Kelvin.  Pressure   1.00000 Atm.
 Atom     1 has atomic number  1 and mass   1.00783

 Molecular mass:    21.01405 amu.
 Principal axes and moments of inertia in atomic units:
                           1         2         3
     Eigenvalues --     0.00000  79.73573  79.73573
           X            1.00000  -0.00000   0.00000
           Y            0.00000   1.00000   0.00000
           Z            0.00000   0.00000   1.00000
 This molecule is a prolate symmetric top.
 Rotational symmetry number  1.
 Rotational temperature (Kelvin)      1.08626
 Rotational constant (GHZ):          22.634035
    2 imaginary frequencies ignored.
 Zero-point vibrational energy       5780.4 (Joules/Mol)
                                    1.38155 (Kcal/Mol)
 Warning -- explicit consideration of   2 degrees of freedom as
           vibrations may cause significant error
 Vibrational temperatures:    695.22   695.22
          (Kelvin)

 Zero-point correction=                           0.002202 (Hartree/Particle)
 Thermal correction to Energy=                    0.005036
 Thermal correction to Enthalpy=                  0.005980
 Thermal correction to Gibbs Free Energy=        -0.018249
 Sum of electronic and zero-point Energies=           -100.784354
 Sum of electronic and thermal Energies=              -100.781520
 Sum of electronic and thermal Enthalpies=            -100.780576
 Sum of electronic and thermal Free Energies=         -100.804805

                     E (Thermal)             CV                S
                      KCal/Mol        Cal/Mol-Kelvin    Cal/Mol-Kelvin
 Total                    3.160              7.543             50.993
 Electronic               0.000              0.000              1.377
 Translational            0.889              2.981             35.068
 Rotational               0.592              1.987             13.145
 Vibrational              1.679              2.575              1.403
 Vibration     1          0.839              1.287              0.701
 Vibration     2          0.839              1.287              0.701

 Normal termination of Gaussian 16 at Fri Aug 22 17:04:09 2025.
