 Gaussian 16, Revision C.01,
 Gaussian 16:  ES64L-G16RevC.01  3-Jul-2019

 -----------------------------------------
 # sp b3lyp/6-311g** Force nosymm scf=(qc)
 -----------------------------------------

 -------------------
 Title Card Required
 -------------------
 Symbolic Z-matrix:
 Charge =  0 Multiplicity = 2

                          Input orientation:
 ---------------------------------------------------------------------
 Center     Atomic      Atomic             Coordinates (Angstroms)
 Number     Number       Type             X           Y           Z
 ---------------------------------------------------------------------
      1          1           0        0.000000    0.000000    0.000000
      2          1           0       -3.450000    0.000000    0.000000
      3          9           0        2.350000    0.000000    0.000000
 ---------------------------------------------------------------------

 SCF Done:  E(UB3LYP) =  -100.771353689     a.u. after   15 cycles

 Alpha  occ. eigenvalues --  -24.70805  -1.17071  -0.49891  -0.41930  -0.41930
 Alpha  occ. eigenvalues --   -0.33071
 Alpha virt. eigenvalues --   -0.11223   0.23258   0.34553   0.89045   0.94076
 Alpha virt. eigenvalues --    0.94076   1.06294   1.24442   1.24442   1.24631
 Alpha virt. eigenvalues --    1.39089   1.39089   1.47265   2.14405   2.34643

  Beta  occ. eigenvalues --  -24.68056  -1.09276  -0.39196  -0.39196  -0.36019
  Beta virt. eigenvalues --   -0.22709  -0.06913   0.23744   0.37826   0.93765
  Beta virt. eigenvalues --    0.95342   0.95342   1.08380   1.21706   1.21706
  Beta virt. eigenvalues --    1.34949   1.45587   1.45832   1.45832   2.12280

 Mulliken charges and spin densities:
               1          2
     1  H    0.113470  -0.864955
     2  H    0.001223   0.997587
     3  F   -0.114693   0.867368
 Sum of Mulliken charges =   0.00000   1.00000

 Dipole moment (field-independent basis, Debye):
    X=             -1.3822    Y=              0.0000    Z=              0.0000  Tot=              1.3822
 Quadrupole moment (field-independent basis, Debye-Ang):
   XX=             -9.5504   YY=             -7.5527   ZZ=             -7.5527
   XY=              0.0000   XZ=              0.0000   YZ=             -0.0000

  Exact polarizability:      29.891       0.000       2.030       0.000       0.000       2.030
 Approx polarizability:      39.231       0.000       1.922       0.000       0.000       1.922

 ******    2 imaginary frequencies (negative Signs) ******

                      1                      2                      3
                      A                      A                      A
 Frequencies --   -728.8345              -128.2050               294.7589
 Red. masses --      1.0550                 1.0566                 1.0232
 Frc consts  --      0.3302                 0.0102                 0.0524
 IR Inten    --     92.9091                 0.3272                12.2243

                      4
                      A
 Frequencies --    294.7589
 Red. masses --      1.0232
 Frc consts  --      0.0524
 IR Inten    --     12.2243

 - Thermochemistry -
 -------------------
 Temperature   298.150 Kelvin.  Pressure   1.00000 Atm.
 Atom     1 has atomic number  1 and mass   1.00783

 Molecular mass:    21.01405 amu.
 Principal axes and moments of inertia in atomic units:
                           1         2         3
     Eigenvalues --     0.00000 129.48119 129.48119
           X            1.00000  -0.00000   0.00000
           Y            0.00000   1.00000   0.00000
           Z            0.00000   0.00000   1.00000
 This molecule is a prolate symmetric top.
 Rotational symmetry number  1.
 Rotational temperature (Kelvin)      0.66893
 Rotational constant (GHZ):          13.938250
    2 imaginary frequencies ignored.
 Zero-point vibrational energy       3526.1 (Joules/Mol)
                                    0.84276 (Kcal/Mol)
 Warning -- explicit consideration of   2 degrees of freedom as
           vibrations may cause significant error
 Vibrational temperatures:    424.09   424.09
          (Kelvin)

 Zero-point correction=                           0.001343 (Hartree/Particle)
 Thermal correction to Energy=                    0.004557
 Thermal correction to Enthalpy=                  0.005501
 Thermal correction to Gibbs Free Energy=        -0.019893
 Sum of electronic and zero-point Energies=           -100.770011
 Sum of electronic and thermal Energies=              -100.766797
 Sum of electronic and thermal Enthalpies=            -100.765853
 Sum of electronic and thermal Free Energies=         -100.791247

                     E (Thermal)             CV                S
                      KCal/Mol        Cal/Mol-Kelvin    Cal/Mol-Kelvin
 Total                    2.860              8.335             53.447
 Electronic               0.000              0.000              1.377
 Translational            0.889              2.981             35.068
 Rotational               0.592              1.987             14.108
 Vibrational              1.378              3.367              2.893
 Vibration     1          0.689              1.684              1.446
 Vibration     2          0.689              1.684              1.446

 Normal termination of Gaussian 16 at Fri Aug 22 17:27:42 2025.
