 Gaussian 16, Revision C.01,
 Gaussian 16:  ES64L-G16RevC.01  3-Jul-2019

 -----------------------------------------
 # sp b3lyp/6-311g** Force nosymm scf=(qc)
 -----------------------------------------

 -------------------
 Title Card Required
 -------------------
 Symbolic Z-matrix:
 Charge =  0 Multiplicity = 2

                          Input orientation:
 ---------------------------------------------------------------------
 Center     Atomic      Atomic             Coordinates (Angstroms)
 Number     Number       Type             X           Y           Z
 ---------------------------------------------------------------------
      1          1           0        0.000000    0.000000    0.000000
      2          1           0       -1.850000    0.000000    0.000000
      3          9           0        2.150000    0.000000    0.000000
 ---------------------------------------------------------------------

 SCF Done:  E(UB3LYP) =  -100.799436123     a.u. after   14 cycles

 Alpha  occ. eigenvalues --  -24.69603  -1.15912  -0.48736  -0.40902  -0.40902
 Alpha  occ. eigenvalues --   -0.36352
 Alpha virt. eigenvalues --   -0.13053   0.23891   0.31269   0.86895   0.94530
 Alpha virt. eigenvalues --    0.94530   1.03929   1.21367   1.21367   1.24969
 Alpha virt. eigenvalues --    1.34133   1.34133   1.59614   2.11855   2.35149

  Beta  occ. eigenvalues --  -24.66997  -1.08564  -0.38320  -0.38320  -0.36544
  Beta virt. eigenvalues --   -0.22514  -0.11774   0.26351   0.30935   0.90679
  Beta virt. eigenvalues --    0.95610   0.95610   1.07647   1.22481   1.22481
  Beta virt. eigenvalues --    1.31131   1.35487   1.35487   1.59249   2.12612

 Mulliken charges and spin densities:
               1          2
     1  H    0.096272  -0.631319
     2  H    0.047715   0.810937
     3  F   -0.143987   0.820382
 Sum of Mulliken charges =   0.00000   1.00000

 Dipole moment (field-independent basis, Debye):
    X=             -1.9765    Y=              0.0000    Z=             -0.0000  Tot=              1.9765
 Quadrupole moment (field-independent basis, Debye-Ang):
   XX=             -8.3176   YY=             -7.5998   ZZ=             -7.5998
   XY=              0.0000   XZ=             -0.0000   YZ=              0.0000

  Exact polarizability:      56.004       0.000       2.043      -0.000      -0.000       2.043
 Approx polarizability:      69.345      -0.000       1.964       0.000      -0.000       1.964

 ******    2 imaginary frequencies (negative Signs) ******

                      1                      2                      3
                      A                      A                      A
 Frequencies --  -1714.1930              -523.0760               719.0069
 Red. masses --      1.0117                 1.1039                 1.0162
 Frc consts  --      1.7515                 0.1780                 0.3095
 IR Inten    --    178.3826                45.2848                 4.5934

                      4
                      A
 Frequencies --    719.0069
 Red. masses --      1.0162
 Frc consts  --      0.3095
 IR Inten    --      4.5934

 - Thermochemistry -
 -------------------
 Temperature   298.150 Kelvin.  Pressure   1.00000 Atm.
 Atom     1 has atomic number  1 and mass   1.00783

 Molecular mass:    21.01405 amu.
 Principal axes and moments of inertia in atomic units:
                           1         2         3
     Eigenvalues --     0.00000  67.69213  67.69213
           X            1.00000  -0.00000   0.00000
           Y            0.00000   1.00000   0.00000
           Z            0.00000   0.00000   1.00000
 This molecule is a prolate symmetric top.
 Rotational symmetry number  1.
 Rotational temperature (Kelvin)      1.27953
 Rotational constant (GHZ):          26.661020
    2 imaginary frequencies ignored.
 Zero-point vibrational energy       8601.2 (Joules/Mol)
                                    2.05574 (Kcal/Mol)
 Vibrational temperatures:   1034.49  1034.49
          (Kelvin)

 Zero-point correction=                           0.003276 (Hartree/Particle)
 Thermal correction to Energy=                    0.005847
 Thermal correction to Enthalpy=                  0.006791
 Thermal correction to Gibbs Free Energy=        -0.016886
 Sum of electronic and zero-point Energies=           -100.796160
 Sum of electronic and thermal Energies=              -100.793589
 Sum of electronic and thermal Enthalpies=            -100.792645
 Sum of electronic and thermal Free Energies=         -100.816323

                     E (Thermal)             CV                S
                      KCal/Mol        Cal/Mol-Kelvin    Cal/Mol-Kelvin
 Total                    3.669              6.555             49.834
 Electronic               0.000              0.000              1.377
 Translational            0.889              2.981             35.068
 Rotational               0.592              1.987             12.820
 Vibrational              2.188              1.587              0.569

 Normal termination of Gaussian 16 at Fri Aug 22 17:07:31 2025.
