 Gaussian 16, Revision C.01,
 Gaussian 16:  ES64L-G16RevC.01  3-Jul-2019

 -----------------------------------------
 # sp b3lyp/6-311g** Force nosymm scf=(qc)
 -----------------------------------------

 -------------------
 Title Card Required
 -------------------
 Symbolic Z-matrix:
 Charge =  0 Multiplicity = 2

                          Input orientation:
 ---------------------------------------------------------------------
 Center     Atomic      Atomic             Coordinates (Angstroms)
 Number     Number       Type             X           Y           Z
 ---------------------------------------------------------------------
      1          1           0        0.000000    0.000000    0.000000
      2          1           0       -2.900000    0.000000    0.000000
      3          9           0        1.850000    0.000000    0.000000
 ---------------------------------------------------------------------

 SCF Done:  E(UB3LYP) =  -100.800461617     a.u. after   19 cycles

 Alpha  occ. eigenvalues --  -24.66951  -1.13195  -0.45819  -0.38654  -0.38654
 Alpha  occ. eigenvalues --   -0.34374
 Alpha virt. eigenvalues --   -0.14565   0.22723   0.30184   0.91848   0.94889
 Alpha virt. eigenvalues --    0.94889   1.06045   1.23181   1.23181   1.24141
 Alpha virt. eigenvalues --    1.34056   1.34056   1.67714   2.14002   2.27201

  Beta  occ. eigenvalues --  -24.64898  -1.07514  -0.38878  -0.36644  -0.36644
  Beta virt. eigenvalues --   -0.19705  -0.08526   0.23235   0.36385   0.92867
  Beta virt. eigenvalues --    0.95067   0.95067   1.08268   1.23287   1.23287
  Beta virt. eigenvalues --    1.43523   1.43744   1.43744   1.62693   2.12997

 Mulliken charges and spin densities:
               1          2
     1  H    0.231493  -0.634712
     2  H    0.008185   0.988811
     3  F   -0.239678   0.645901
 Sum of Mulliken charges =   0.00000   1.00000

 Dipole moment (field-independent basis, Debye):
    X=             -2.2843    Y=             -0.0000    Z=              0.0000  Tot=              2.2843
 Quadrupole moment (field-independent basis, Debye-Ang):
   XX=             -9.8493   YY=             -7.4655   ZZ=             -7.4655
   XY=             -0.0000   XZ=              0.0000   YZ=              0.0000

  Exact polarizability:      28.743      -0.000       2.087       0.000      -0.000       2.087
 Approx polarizability:      39.752       0.000       1.977      -0.000      -0.000       1.977

 ******    2 imaginary frequencies (negative Signs) ******

                      1                      2                      3
                      A                      A                      A
 Frequencies --  -1422.4150              -241.5779               604.1471
 Red. masses --      1.0547                 1.0569                 1.0242
 Frc consts  --      1.2572                 0.0363                 0.2203
 IR Inten    --    117.5829                 3.4690                47.3923

                      4
                      A
 Frequencies --    604.1471
 Red. masses --      1.0242
 Frc consts  --      0.2203
 IR Inten    --     47.3923

 - Thermochemistry -
 -------------------
 Temperature   298.150 Kelvin.  Pressure   1.00000 Atm.
 Atom     1 has atomic number  1 and mass   1.00783

 Molecular mass:    21.01405 amu.
 Principal axes and moments of inertia in atomic units:
                           1         2         3
     Eigenvalues --     0.00000  86.00148  86.00148
           X            1.00000  -0.00000   0.00000
           Y            0.00000   1.00000   0.00000
           Z            0.00000   0.00000   1.00000
 This molecule is a prolate symmetric top.
 Rotational symmetry number  1.
 Rotational temperature (Kelvin)      1.00712
 Rotational constant (GHZ):          20.985002
    2 imaginary frequencies ignored.
 Zero-point vibrational energy       7227.2 (Joules/Mol)
                                    1.72734 (Kcal/Mol)
 Warning -- explicit consideration of   2 degrees of freedom as
           vibrations may cause significant error
 Vibrational temperatures:    869.23   869.23
          (Kelvin)

 Zero-point correction=                           0.002753 (Hartree/Particle)
 Thermal correction to Energy=                    0.005429
 Thermal correction to Enthalpy=                  0.006373
 Thermal correction to Gibbs Free Energy=        -0.017681
 Sum of electronic and zero-point Energies=           -100.797709
 Sum of electronic and thermal Energies=              -100.795033
 Sum of electronic and thermal Enthalpies=            -100.794089
 Sum of electronic and thermal Free Energies=         -100.818143

                     E (Thermal)             CV                S
                      KCal/Mol        Cal/Mol-Kelvin    Cal/Mol-Kelvin
 Total                    3.406              7.014             50.626
 Electronic               0.000              0.000              1.377
 Translational            0.889              2.981             35.068
 Rotational               0.592              1.987             13.295
 Vibrational              1.925              2.046              0.885
 Vibration     1          0.963              1.023              0.443
 Vibration     2          0.963              1.023              0.443

 Normal termination of Gaussian 16 at Fri Aug 22 16:47:37 2025.
