 Gaussian 16, Revision C.01,
 Gaussian 16:  ES64L-G16RevC.01  3-Jul-2019

 -----------------------------------------
 # sp b3lyp/6-311g** Force nosymm scf=(qc)
 -----------------------------------------

 -------------------
 Title Card Required
 -------------------
 Symbolic Z-matrix:
 Charge =  0 Multiplicity = 2

                          Input orientation:
 ---------------------------------------------------------------------
 Center     Atomic      Atomic             Coordinates (Angstroms)
 Number     Number       Type             X           Y           Z
 ---------------------------------------------------------------------
      1          1           0        0.000000    0.000000    0.000000
      2          1           0       -1.550000    0.000000    0.000000
      3          9           0        2.100000    0.000000    0.000000
 ---------------------------------------------------------------------

 SCF Done:  E(UB3LYP) =  -100.825914025     a.u. after   13 cycles

 Alpha  occ. eigenvalues --  -24.70334  -1.16646  -0.49665  -0.41557  -0.41557
 Alpha  occ. eigenvalues --   -0.37368
 Alpha virt. eigenvalues --   -0.11165   0.22855   0.31187   0.85309   0.93880
 Alpha virt. eigenvalues --    0.93880   1.02827   1.17684   1.17684   1.25600
 Alpha virt. eigenvalues --    1.37685   1.37685   1.77886   2.18272   2.43042

  Beta  occ. eigenvalues --  -24.67679  -1.09152  -0.38924  -0.38924  -0.36893
  Beta virt. eigenvalues --   -0.23571  -0.09799   0.24899   0.30907   0.89525
  Beta virt. eigenvalues --    0.94999   0.94999   1.06860   1.19311   1.19311
  Beta virt. eigenvalues --    1.29990   1.38452   1.38452   1.79107   2.19234

 Mulliken charges and spin densities:
               1          2
     1  H    0.072839  -0.402219
     2  H    0.058143   0.567223
     3  F   -0.130982   0.834996
 Sum of Mulliken charges =  -0.00000   1.00000

 Dipole moment (field-independent basis, Debye):
    X=             -1.8043    Y=              0.0000    Z=              0.0000  Tot=              1.8043
 Quadrupole moment (field-independent basis, Debye-Ang):
   XX=             -7.6791   YY=             -7.5719   ZZ=             -7.5719
   XY=             -0.0000   XZ=             -0.0000   YZ=             -0.0000

  Exact polarizability:      55.010      -0.000       2.087      -0.000       0.000       2.087
 Approx polarizability:      81.128       0.000       2.039       0.000      -0.000       2.039

 ******    2 imaginary frequencies (negative Signs) ******

                      1                      2                      3
                      A                      A                      A
 Frequencies --  -2116.4231              -466.9976              1033.9983
 Red. masses --      1.0106                 1.1051                 1.0147
 Frc consts  --      2.6672                 0.1420                 0.6392
 IR Inten    --    636.4370                27.3078                 1.3714

                      4
                      A
 Frequencies --   1033.9983
 Red. masses --      1.0147
 Frc consts  --      0.6392
 IR Inten    --      1.3714

 - Thermochemistry -
 -------------------
 Temperature   298.150 Kelvin.  Pressure   1.00000 Atm.
 Atom     1 has atomic number  1 and mass   1.00783

 Molecular mass:    21.01405 amu.
 Principal axes and moments of inertia in atomic units:
                           1         2         3
     Eigenvalues --     0.00000  58.11260  58.11260
           X            1.00000  -0.00000   0.00000
           Y            0.00000   1.00000   0.00000
           Z            0.00000   0.00000   1.00000
 This molecule is a prolate symmetric top.
 Rotational symmetry number  1.
 Rotational temperature (Kelvin)      1.49045
 Rotational constant (GHZ):          31.055935
    2 imaginary frequencies ignored.
 Zero-point vibrational energy      12369.4 (Joules/Mol)
                                    2.95635 (Kcal/Mol)
 Vibrational temperatures:   1487.69  1487.69
          (Kelvin)

 Zero-point correction=                           0.004711 (Hartree/Particle)
 Thermal correction to Energy=                    0.007136
 Thermal correction to Enthalpy=                  0.008080
 Thermal correction to Gibbs Free Energy=        -0.015260
 Sum of electronic and zero-point Energies=           -100.821203
 Sum of electronic and thermal Energies=              -100.818778
 Sum of electronic and thermal Enthalpies=            -100.817834
 Sum of electronic and thermal Free Energies=         -100.841174

                     E (Thermal)             CV                S
                      KCal/Mol        Cal/Mol-Kelvin    Cal/Mol-Kelvin
 Total                    4.478              5.651             49.125
 Electronic               0.000              0.000              1.377
 Translational            0.889              2.981             35.068
 Rotational               0.592              1.987             12.516
 Vibrational              2.997              0.683              0.163

 Normal termination of Gaussian 16 at Fri Aug 22 17:03:25 2025.
