 Gaussian 16, Revision C.01,
 Gaussian 16:  ES64L-G16RevC.01  3-Jul-2019

 -----------------------------------------
 # sp b3lyp/6-311g** Force nosymm scf=(qc)
 -----------------------------------------

 -------------------
 Title Card Required
 -------------------
 Symbolic Z-matrix:
 Charge =  0 Multiplicity = 2

                          Input orientation:
 ---------------------------------------------------------------------
 Center     Atomic      Atomic             Coordinates (Angstroms)
 Number     Number       Type             X           Y           Z
 ---------------------------------------------------------------------
      1          1           0        0.000000    0.000000    0.000000
      2          1           0       -2.450000    0.000000    0.000000
      3          9           0        1.500000    0.000000    0.000000
 ---------------------------------------------------------------------

 SCF Done:  E(UB3LYP) =  -100.856418824     a.u. after    8 cycles

 Alpha  occ. eigenvalues --  -24.64074  -1.09722  -0.43451  -0.36223  -0.36223
 Alpha  occ. eigenvalues --   -0.35843
 Alpha virt. eigenvalues --   -0.13308   0.23146   0.26737   0.93876   0.93876
 Alpha virt. eigenvalues --    1.03435   1.10312   1.21627   1.21627   1.25040
 Alpha virt. eigenvalues --    1.32207   1.32207   1.74610   2.12482   2.20671

  Beta  occ. eigenvalues --  -24.63745  -1.08854  -0.42509  -0.35911  -0.35911
  Beta virt. eigenvalues --   -0.16174  -0.07895   0.25255   0.35232   0.93763
  Beta virt. eigenvalues --    0.93763   1.04246   1.10915   1.30765   1.30765
  Beta virt. eigenvalues --    1.41768   1.41768   1.43358   1.74302   2.18038

 Mulliken charges and spin densities:
               1          2
     1  H    0.332010  -0.078631
     2  H    0.020851   0.975353
     3  F   -0.352861   0.103278
 Sum of Mulliken charges =   0.00000   1.00000

 Dipole moment (field-independent basis, Debye):
    X=             -2.8441    Y=              0.0000    Z=              0.0000  Tot=              2.8441
 Quadrupole moment (field-independent basis, Debye-Ang):
   XX=             -9.3050   YY=             -7.3230   ZZ=             -7.3230
   XY=              0.0000   XZ=              0.0000   YZ=              0.0000

  Exact polarizability:      22.696      -0.000       2.204       0.000      -0.000       2.204
 Approx polarizability:      35.307       0.000       2.132       0.000      -0.000       2.132

 ******    2 imaginary frequencies (negative Signs) ******

                      1                      2                      3
                      A                      A                      A
 Frequencies --  -1438.1917              -264.9705               991.3958
 Red. masses --      1.0473                 1.0644                 1.0248
 Frc consts  --      1.2763                 0.0440                 0.5935
 IR Inten    --     87.0545                 2.6407                95.5828

                      4
                      A
 Frequencies --    991.3958
 Red. masses --      1.0248
 Frc consts  --      0.5935
 IR Inten    --     95.5828

 - Thermochemistry -
 -------------------
 Temperature   298.150 Kelvin.  Pressure   1.00000 Atm.
 Atom     1 has atomic number  1 and mass   1.00783

 Molecular mass:    21.01405 amu.
 Principal axes and moments of inertia in atomic units:
                           1         2         3
     Eigenvalues --     0.00000  59.12444  59.12444
           X            1.00000  -0.00000   0.00000
           Y            0.00000   1.00000   0.00000
           Z            0.00000   0.00000   1.00000
 This molecule is a prolate symmetric top.
 Rotational symmetry number  1.
 Rotational temperature (Kelvin)      1.46494
 Rotational constant (GHZ):          30.524452
    2 imaginary frequencies ignored.
 Zero-point vibrational energy      11859.7 (Joules/Mol)
                                    2.83454 (Kcal/Mol)
 Vibrational temperatures:   1426.40  1426.40
          (Kelvin)

 Zero-point correction=                           0.004517 (Hartree/Particle)
 Thermal correction to Energy=                    0.006954
 Thermal correction to Enthalpy=                  0.007898
 Thermal correction to Gibbs Free Energy=        -0.015474
 Sum of electronic and zero-point Energies=           -100.851902
 Sum of electronic and thermal Energies=              -100.849465
 Sum of electronic and thermal Enthalpies=            -100.848521
 Sum of electronic and thermal Free Energies=         -100.871893

                     E (Thermal)             CV                S
                      KCal/Mol        Cal/Mol-Kelvin    Cal/Mol-Kelvin
 Total                    4.364              5.741             49.190
 Electronic               0.000              0.000              1.377
 Translational            0.889              2.981             35.068
 Rotational               0.592              1.987             12.551
 Vibrational              2.882              0.773              0.194

 Normal termination of Gaussian 16 at Fri Aug 22 16:25:53 2025.
