 Gaussian 16, Revision C.01,
 Gaussian 16:  ES64L-G16RevC.01  3-Jul-2019

 -----------------------------------------
 # sp b3lyp/6-311g** Force nosymm scf=(qc)
 -----------------------------------------

 -------------------
 Title Card Required
 -------------------
 Symbolic Z-matrix:
 Charge =  0 Multiplicity = 2

                          Input orientation:
 ---------------------------------------------------------------------
 Center     Atomic      Atomic             Coordinates (Angstroms)
 Number     Number       Type             X           Y           Z
 ---------------------------------------------------------------------
      1          1           0        0.000000    0.000000    0.000000
      2          1           0       -2.150000    0.000000    0.000000
      3          9           0        0.750000    0.000000    0.000000
 ---------------------------------------------------------------------

 SCF Done:  E(UB3LYP) =  -100.922041755     a.u. after    6 cycles

 Alpha  occ. eigenvalues --  -24.63331  -1.25371  -0.57394  -0.41080  -0.41080
 Alpha  occ. eigenvalues --   -0.35167
 Alpha virt. eigenvalues --    0.08686   0.24849   0.47918   0.94025   0.94025
 Alpha virt. eigenvalues --    0.96481   1.15464   1.22344   1.22344   1.41840
 Alpha virt. eigenvalues --    1.41840   1.50583   1.98555   2.16905   2.67870

  Beta  occ. eigenvalues --  -24.63305  -1.25300  -0.57273  -0.41061  -0.41061
  Beta virt. eigenvalues --   -0.10104   0.10298   0.36390   0.47841   0.94024
  Beta virt. eigenvalues --    0.94024   0.96762   1.25645   1.41286   1.41286
  Beta virt. eigenvalues --    1.43428   1.43428   1.60874   2.00698   2.42186

 Mulliken charges and spin densities:
               1          2
     1  H    0.257456   0.006946
     2  H    0.008597   0.986679
     3  F   -0.266053   0.006375
 Sum of Mulliken charges =   0.00000   1.00000

 Dipole moment (field-independent basis, Debye):
    X=             -1.7503    Y=              0.0000    Z=             -0.0000  Tot=              1.7503
 Quadrupole moment (field-independent basis, Debye-Ang):
   XX=             -7.1824   YY=             -6.6942   ZZ=             -6.6942
   XY=              0.0000   XZ=             -0.0000   YZ=             -0.0000

  Exact polarizability:       6.669       0.000       2.492      -0.000       0.000       2.492
 Approx polarizability:       6.748      -0.000       2.481       0.000       0.000       2.481

 ******    2 imaginary frequencies (negative Signs) ******

                      1                      2                      3
                      A                      A                      A
 Frequencies --  -2666.2084             -2666.2084               231.4892
 Red. masses --      1.0339                 1.0339                 1.0532
 Frc consts  --      4.3302                 4.3302                 0.0333
 IR Inten    --    177.8407               177.8407                 0.3656

                      4
                      A
 Frequencies --   7581.7841
 Red. masses --      1.0583
 Frc consts  --     35.8432
 IR Inten    --    141.3146

 - Thermochemistry -
 -------------------
 Temperature   298.150 Kelvin.  Pressure   1.00000 Atm.
 Atom     1 has atomic number  1 and mass   1.00783

 Molecular mass:    21.01405 amu.
 Principal axes and moments of inertia in atomic units:
                           1         2         3
     Eigenvalues --     0.00000  29.99255  29.99255
           X            1.00000  -0.00000   0.00000
           Y            0.00000   1.00000   0.00000
           Z            0.00000   0.00000   1.00000
 This molecule is a prolate symmetric top.
 Rotational symmetry number  1.
 Rotational temperature (Kelvin)      2.88785
 Rotational constant (GHZ):          60.172986
    2 imaginary frequencies ignored.
 Zero-point vibrational energy      46733.8 (Joules/Mol)
                                   11.16963 (Kcal/Mol)
 Warning -- explicit consideration of   1 degrees of freedom as
           vibrations may cause significant error
 Vibrational temperatures:    333.06 10908.50
          (Kelvin)

 Zero-point correction=                           0.017800 (Hartree/Particle)
 Thermal correction to Energy=                    0.020673
 Thermal correction to Enthalpy=                  0.021618
 Thermal correction to Gibbs Free Energy=        -0.001908
 Sum of electronic and zero-point Energies=           -100.904242
 Sum of electronic and thermal Energies=              -100.901368
 Sum of electronic and thermal Enthalpies=            -100.900424
 Sum of electronic and thermal Free Energies=         -100.923950

                     E (Thermal)             CV                S
                      KCal/Mol        Cal/Mol-Kelvin    Cal/Mol-Kelvin
 Total                   12.973              6.761             49.515
 Electronic               0.000              0.000              1.377
 Translational            0.889              2.981             35.068
 Rotational               0.592              1.987             11.202
 Vibrational             11.492              1.793              1.867
 Vibration     1          0.653              1.793              1.867

 Normal termination of Gaussian 16 at Fri Aug 22 15:48:51 2025.
