 Gaussian 16, Revision C.01,
 Gaussian 16:  ES64L-G16RevC.01  3-Jul-2019

 -----------------------------------------
 # sp b3lyp/6-311g** Force nosymm scf=(qc)
 -----------------------------------------

 -------------------
 Title Card Required
 -------------------
 Symbolic Z-matrix:
 Charge =  0 Multiplicity = 2

                          Input orientation:
 ---------------------------------------------------------------------
 Center     Atomic      Atomic             Coordinates (Angstroms)
 Number     Number       Type             X           Y           Z
 ---------------------------------------------------------------------
      1          1           0        0.000000    0.000000    0.000000
      2          1           0       -0.650000    0.000000    0.000000
      3          9           0        1.800000    0.000000    0.000000
 ---------------------------------------------------------------------

 SCF Done:  E(UB3LYP) =  -100.926995494     a.u. after    6 cycles

 Alpha  occ. eigenvalues --  -24.74204  -1.20488  -0.55576  -0.46011  -0.44932
 Alpha  occ. eigenvalues --   -0.44932
 Alpha virt. eigenvalues --    0.09753   0.20062   0.46887   0.89895   0.89895
 Alpha virt. eigenvalues --    0.94922   1.08754   1.08754   1.19799   1.68660
 Alpha virt. eigenvalues --    1.84216   1.88280   1.88280   2.44667   3.68177

  Beta  occ. eigenvalues --  -24.71220  -1.12050  -0.47649  -0.41972  -0.41972
  Beta virt. eigenvalues --   -0.25030   0.10519   0.20724   0.47915   0.91188
  Beta virt. eigenvalues --    0.91188   1.02317   1.09735   1.09735   1.23331
  Beta virt. eigenvalues --    1.70335   1.84892   1.88737   1.88737   2.45763

 Mulliken charges and spin densities:
               1          2
     1  H    0.031773  -0.028645
     2  H    0.023213   0.100670
     3  F   -0.054986   0.927975
 Sum of Mulliken charges =   0.00000   1.00000

 Dipole moment (field-independent basis, Debye):
    X=             -0.5338    Y=              0.0000    Z=              0.0000  Tot=              0.5338
 Quadrupole moment (field-independent basis, Debye-Ang):
   XX=             -6.1811   YY=             -6.7495   ZZ=             -6.7495
   XY=              0.0000   XZ=              0.0000   YZ=             -0.0000

  Exact polarizability:      15.807      -0.000       2.116      -0.000      -0.000       2.116
 Approx polarizability:      17.689      -0.000       2.180       0.000      -0.000       2.180

 ******    2 imaginary frequencies (negative Signs) ******

                      1                      2                      3
                      A                      A                      A
 Frequencies --  -2060.9164             -2060.9164               182.2851
 Red. masses --      1.0101                 1.0101                 1.1085
 Frc consts  --      2.5279                 2.5279                 0.0217
 IR Inten    --      0.1596                 0.1596                37.3106

                      4
                      A
 Frequencies --   5889.4951
 Red. masses --      1.0078
 Frc consts  --     20.5966
 IR Inten    --    321.6258

 - Thermochemistry -
 -------------------
 Temperature   298.150 Kelvin.  Pressure   1.00000 Atm.
 Atom     1 has atomic number  1 and mass   1.00783

 Molecular mass:    21.01405 amu.
 Principal axes and moments of inertia in atomic units:
                           1         2         3
     Eigenvalues --     0.00000  30.14612  30.14612
           X            1.00000  -0.00000   0.00000
           Y            0.00000   1.00000   0.00000
           Z            0.00000   0.00000   1.00000
 This molecule is a prolate symmetric top.
 Rotational symmetry number  1.
 Rotational temperature (Kelvin)      2.87314
 Rotational constant (GHZ):          59.866443
    2 imaginary frequencies ignored.
 Zero-point vibrational energy      36317.3 (Joules/Mol)
                                    8.68005 (Kcal/Mol)
 Warning -- explicit consideration of   1 degrees of freedom as
           vibrations may cause significant error
 Vibrational temperatures:    262.27  8473.67
          (Kelvin)

 Zero-point correction=                           0.013833 (Hartree/Particle)
 Thermal correction to Energy=                    0.016782
 Thermal correction to Enthalpy=                  0.017726
 Thermal correction to Gibbs Free Energy=        -0.006013
 Sum of electronic and zero-point Energies=           -100.913163
 Sum of electronic and thermal Energies=              -100.910213
 Sum of electronic and thermal Enthalpies=            -100.909269
 Sum of electronic and thermal Free Energies=         -100.933008

                     E (Thermal)             CV                S
                      KCal/Mol        Cal/Mol-Kelvin    Cal/Mol-Kelvin
 Total                   10.531              6.832             49.963
 Electronic               0.000              0.000              1.377
 Translational            0.889              2.981             35.068
 Rotational               0.592              1.987             11.212
 Vibrational              9.050              1.864              2.305
 Vibration     1          0.630              1.864              2.305

 Normal termination of Gaussian 16 at Fri Aug 22 16:42:18 2025.
