 Gaussian 16, Revision C.01,
 Gaussian 16:  ES64L-G16RevC.01  3-Jul-2019

 -----------------------------------------
 # sp b3lyp/6-311g** Force nosymm scf=(qc)
 -----------------------------------------

 -------------------
 Title Card Required
 -------------------
 Symbolic Z-matrix:
 Charge =  0 Multiplicity = 2

                          Input orientation:
 ---------------------------------------------------------------------
 Center     Atomic      Atomic             Coordinates (Angstroms)
 Number     Number       Type             X           Y           Z
 ---------------------------------------------------------------------
      1          1           0        0.000000    0.000000    0.000000
      2          1           0       -3.850000    0.000000    0.000000
      3          9           0        0.500000    0.000000    0.000000
 ---------------------------------------------------------------------

 SCF Done:  E(UB3LYP) =  -100.268953431     a.u. after    6 cycles

 Alpha  occ. eigenvalues --  -24.63032  -1.42357  -0.63508  -0.44338  -0.44338
 Alpha  occ. eigenvalues --   -0.33069
 Alpha virt. eigenvalues --    0.08044   0.24672   0.62082   0.88990   0.90147
 Alpha virt. eigenvalues --    0.90147   1.24344   1.24434   1.24434   1.36084
 Alpha virt. eigenvalues --    1.58511   1.58511   2.00239   2.14473   3.76629

  Beta  occ. eigenvalues --  -24.63032  -1.42357  -0.63508  -0.44338  -0.44338
  Beta virt. eigenvalues --   -0.05066   0.08229   0.38628   0.62065   0.88987
  Beta virt. eigenvalues --    0.90146   0.90146   1.35818   1.48234   1.48757
  Beta virt. eigenvalues --    1.48757   1.58512   1.58512   2.00196   2.46156

 Mulliken charges and spin densities:
               1          2
     1  H    0.126772   0.000261
     2  H    0.000369   0.999596
     3  F   -0.127141   0.000143
 Sum of Mulliken charges =   0.00000   1.00000

 Dipole moment (field-independent basis, Debye):
    X=             -1.2951    Y=              0.0000    Z=              0.0000  Tot=              1.2951
 Quadrupole moment (field-independent basis, Debye-Ang):
   XX=             -6.6773   YY=             -6.4387   ZZ=             -6.4387
   XY=              0.0000   XZ=              0.0000   YZ=             -0.0000

  Exact polarizability:       2.830       0.000       2.411       0.000       0.000       2.411
 Approx polarizability:       3.011      -0.000       2.386       0.000       0.000       2.386

 ******    3 imaginary frequencies (negative Signs) ******

                      1                      2                      3
                      A                      A                      A
 Frequencies --  -9609.0782             -9609.0782               -27.3904
 Red. masses --      1.0469                 1.0469                 1.0532
 Frc consts  --     56.9522                56.9522                 0.0005
 IR Inten    --    285.8497               285.8497                 0.0091

                      4
                      A
 Frequencies --  19159.3988
 Red. masses --      1.0583
 Frc consts  --    228.8901
 IR Inten    --     75.9037

 - Thermochemistry -
 -------------------
 Temperature   298.150 Kelvin.  Pressure   1.00000 Atm.
 Atom     1 has atomic number  1 and mass   1.00783

 Molecular mass:    21.01405 amu.
 Principal axes and moments of inertia in atomic units:
                           1         2         3
     Eigenvalues --     0.00000  64.94185  64.94185
           X            1.00000  -0.00000   0.00000
           Y            0.00000   1.00000   0.00000
           Z            0.00000   0.00000   1.00000
 This molecule is a prolate symmetric top.
 Rotational symmetry number  1.
 Rotational temperature (Kelvin)      1.33372
 Rotational constant (GHZ):          27.790113
    3 imaginary frequencies ignored.
 Zero-point vibrational energy     114598.7 (Joules/Mol)
                                   27.38974 (Kcal/Mol)
 Vibrational temperatures:  27566.10
          (Kelvin)

 Zero-point correction=                           0.043648 (Hartree/Particle)
 Thermal correction to Energy=                    0.046009
 Thermal correction to Enthalpy=                  0.046953
 Thermal correction to Gibbs Free Energy=         0.023585
 Sum of electronic and zero-point Energies=           -100.225305
 Sum of electronic and thermal Energies=              -100.222945
 Sum of electronic and thermal Enthalpies=            -100.222000
 Sum of electronic and thermal Free Energies=         -100.245369

                     E (Thermal)             CV                S
                      KCal/Mol        Cal/Mol-Kelvin    Cal/Mol-Kelvin
 Total                   28.871              4.968             49.183
 Electronic               0.000              0.000              1.377
 Translational            0.889              2.981             35.068
 Rotational               0.592              1.987             12.737
 Vibrational             27.390              0.000              0.000

 Normal termination of Gaussian 16 at Fri Aug 22 15:38:09 2025.
