 Gaussian 16, Revision C.01,
 Gaussian 16:  ES64L-G16RevC.01  3-Jul-2019

 -----------------------------------------
 # sp b3lyp/6-311g** Force nosymm scf=(qc)
 -----------------------------------------

 -------------------
 Title Card Required
 -------------------
 Symbolic Z-matrix:
 Charge =  0 Multiplicity = 2

                          Input orientation:
 ---------------------------------------------------------------------
 Center     Atomic      Atomic             Coordinates (Angstroms)
 Number     Number       Type             X           Y           Z
 ---------------------------------------------------------------------
      1          1           0        0.000000    0.000000    0.000000
      2          1           0       -1.150000    0.000000    0.000000
      3          9           0        3.750000    0.000000    0.000000
 ---------------------------------------------------------------------

 SCF Done:  E(UB3LYP) =  -100.880681744     a.u. after   79 cycles

 Alpha  occ. eigenvalues --  -24.76269  -1.22158  -0.55360  -0.46542  -0.46516
 Alpha  occ. eigenvalues --   -0.36901
 Alpha virt. eigenvalues --   -0.02989   0.22489   0.35206   0.86019   0.90896
 Alpha virt. eigenvalues --    0.91685   1.01056   1.11796   1.11798   1.25836
 Alpha virt. eigenvalues --    1.57094   1.57097   2.11898   2.32963   2.54855

  Beta  occ. eigenvalues --  -24.73113  -1.13083  -0.43378  -0.43352  -0.36900
  Beta virt. eigenvalues --   -0.26007  -0.02986   0.22494   0.35226   0.92396
  Beta virt. eigenvalues --    0.93178   0.95484   1.05192   1.11795   1.11798
  Beta virt. eigenvalues --    1.25839   1.57094   1.57096   2.11901   2.32965

 Mulliken charges and spin densities:
               1          2
     1  H    0.000640  -0.000108
     2  H   -0.002313  -0.000080
     3  F    0.001672   1.000187
 Sum of Mulliken charges =   0.00000   1.00000

 Dipole moment (field-independent basis, Debye):
    X=              0.0304    Y=              0.0000    Z=             -0.0000  Tot=              0.0304
 Quadrupole moment (field-independent basis, Debye-Ang):
   XX=             -6.3109   YY=             -7.0134   ZZ=             -7.0066
   XY=              0.0000   XZ=             -0.0000   YZ=             -0.4322

  Exact polarizability:      14.851       0.000       2.309      -0.000      -0.233       2.312
 Approx polarizability:      21.644       0.000       2.399      -0.000      -0.291       2.403

 ******    1 imaginary frequencies (negative Signs) ******

                      1                      2                      3
                      A                      A                      A
 Frequencies --    -63.7776               582.5840              1504.7481
 Red. masses --      1.1085                 1.0078                 1.0096
 Frc consts  --      0.0027                 0.2015                 1.3469
 IR Inten    --      0.0781                 0.0906                 0.0009

                      4
                      A
 Frequencies --   1504.7785
 Red. masses --      1.0096
 Frc consts  --      1.3469
 IR Inten    --      0.0008

 - Thermochemistry -
 -------------------
 Temperature   298.150 Kelvin.  Pressure   1.00000 Atm.
 Atom     1 has atomic number  1 and mass   1.00783

 Molecular mass:    21.01405 amu.
 Principal axes and moments of inertia in atomic units:
                           1         2         3
     Eigenvalues --     0.00000 124.10837 124.10837
           X            1.00000  -0.00000   0.00000
           Y            0.00000   1.00000   0.00000
           Z            0.00000   0.00000   1.00000
 This molecule is a prolate symmetric top.
 Rotational symmetry number  1.
 Rotational temperature (Kelvin)      0.69789
 Rotational constant (GHZ):          14.541656
    1 imaginary frequencies ignored.
 Zero-point vibrational energy      21485.6 (Joules/Mol)
                                    5.13518 (Kcal/Mol)
 Warning -- explicit consideration of   1 degrees of freedom as
           vibrations may cause significant error
 Vibrational temperatures:    838.21  2165.00  2165.04
          (Kelvin)

 Zero-point correction=                           0.008183 (Hartree/Particle)
 Thermal correction to Energy=                    0.010723
 Thermal correction to Enthalpy=                  0.011668
 Thermal correction to Gibbs Free Energy=        -0.012552
 Sum of electronic and zero-point Energies=           -100.872498
 Sum of electronic and thermal Energies=              -100.869958
 Sum of electronic and thermal Enthalpies=            -100.869014
 Sum of electronic and thermal Free Energies=         -100.893233

                     E (Thermal)             CV                S
                      KCal/Mol        Cal/Mol-Kelvin    Cal/Mol-Kelvin
 Total                    6.729              6.184             50.973
 Electronic               0.000              0.000              1.377
 Translational            0.889              2.981             35.068
 Rotational               0.592              1.987             14.024
 Vibrational              5.248              1.216              0.504
 Vibration     1          0.939              1.069              0.481

 Normal termination of Gaussian 16 at Sat Aug 23 00:14:23 2025.
