 Gaussian 16, Revision C.01,
 Gaussian 16:  ES64L-G16RevC.01  3-Jul-2019

 -----------------------------------------
 # sp b3lyp/6-311g** Force nosymm scf=(qc)
 -----------------------------------------

 -------------------
 Title Card Required
 -------------------
 Symbolic Z-matrix:
 Charge =  0 Multiplicity = 2

                          Input orientation:
 ---------------------------------------------------------------------
 Center     Atomic      Atomic             Coordinates (Angstroms)
 Number     Number       Type             X           Y           Z
 ---------------------------------------------------------------------
      1          1           0        0.000000    0.000000    0.000000
      2          1           0       -3.800000    0.000000    0.000000
      3          9           0        0.700000    0.000000    0.000000
 ---------------------------------------------------------------------

 SCF Done:  E(UB3LYP) =  -100.874750192     a.u. after    6 cycles

 Alpha  occ. eigenvalues --  -24.63200  -1.28235  -0.58590  -0.41766  -0.41766
 Alpha  occ. eigenvalues --   -0.33242
 Alpha virt. eigenvalues --    0.06450   0.24506   0.52503   0.93478   0.93478
 Alpha virt. eigenvalues --    0.95782   1.24146   1.24264   1.24264   1.30682
 Alpha virt. eigenvalues --    1.44056   1.44056   1.97705   2.14364   2.86562

  Beta  occ. eigenvalues --  -24.63200  -1.28234  -0.58590  -0.41766  -0.41766
  Beta virt. eigenvalues --   -0.04930   0.06686   0.39182   0.52476   0.93478
  Beta virt. eigenvalues --    0.93478   0.95777   1.30470   1.44056   1.44056
  Beta virt. eigenvalues --    1.50598   1.50608   1.50608   1.97749   2.44842

 Mulliken charges and spin densities:
               1          2
     1  H    0.262477   0.000354
     2  H    0.000425   0.999511
     3  F   -0.262902   0.000136
 Sum of Mulliken charges =   0.00000   1.00000

 Dipole moment (field-independent basis, Debye):
    X=             -1.5847    Y=             -0.0000    Z=             -0.0000  Tot=              1.5847
 Quadrupole moment (field-independent basis, Debye-Ang):
   XX=             -7.3130   YY=             -6.6631   ZZ=             -6.6631
   XY=             -0.0000   XZ=              0.0000   YZ=             -0.0000

  Exact polarizability:       3.784       0.000       2.444       0.000       0.000       2.444
 Approx polarizability:       4.160       0.000       2.424      -0.000       0.000       2.424

 ******    3 imaginary frequencies (negative Signs) ******

                      1                      2                      3
                      A                      A                      A
 Frequencies --  -3567.5015             -3567.5015               -33.3632
 Red. masses --      1.0430                 1.0430                 1.0532
 Frc consts  --      7.8210                 7.8210                 0.0007
 IR Inten    --    216.0951               216.0951                 0.0123

                      4
                      A
 Frequencies --   9073.2415
 Red. masses --      1.0583
 Frc consts  --     51.3320
 IR Inten    --    104.2669

 - Thermochemistry -
 -------------------
 Temperature   298.150 Kelvin.  Pressure   1.00000 Atm.
 Atom     1 has atomic number  1 and mass   1.00783

 Molecular mass:    21.01405 amu.
 Principal axes and moments of inertia in atomic units:
                           1         2         3
     Eigenvalues --     0.00000  69.97615  69.97615
           X            1.00000  -0.00000   0.00000
           Y            0.00000   1.00000   0.00000
           Z            0.00000   0.00000   1.00000
 This molecule is a prolate symmetric top.
 Rotational symmetry number  1.
 Rotational temperature (Kelvin)      1.23776
 Rotational constant (GHZ):          25.790806
    3 imaginary frequencies ignored.
 Zero-point vibrational energy      54270.0 (Joules/Mol)
                                   12.97085 (Kcal/Mol)
 Vibrational temperatures:  13054.37
          (Kelvin)

 Zero-point correction=                           0.020670 (Hartree/Particle)
 Thermal correction to Energy=                    0.023031
 Thermal correction to Enthalpy=                  0.023975
 Thermal correction to Gibbs Free Energy=         0.000536
 Sum of electronic and zero-point Energies=           -100.854080
 Sum of electronic and thermal Energies=              -100.851719
 Sum of electronic and thermal Enthalpies=            -100.850775
 Sum of electronic and thermal Free Energies=         -100.874214

                     E (Thermal)             CV                S
                      KCal/Mol        Cal/Mol-Kelvin    Cal/Mol-Kelvin
 Total                   14.452              4.968             49.331
 Electronic               0.000              0.000              1.377
 Translational            0.889              2.981             35.068
 Rotational               0.592              1.987             12.886
 Vibrational             12.971              0.000              0.000

 Normal termination of Gaussian 16 at Fri Aug 22 15:47:33 2025.
