 Gaussian 16, Revision C.01,
 Gaussian 16:  ES64L-G16RevC.01  3-Jul-2019

 -----------------------------------------
 # sp b3lyp/6-311g** Force nosymm scf=(qc)
 -----------------------------------------

 -------------------
 Title Card Required
 -------------------
 Symbolic Z-matrix:
 Charge =  0 Multiplicity = 2

                          Input orientation:
 ---------------------------------------------------------------------
 Center     Atomic      Atomic             Coordinates (Angstroms)
 Number     Number       Type             X           Y           Z
 ---------------------------------------------------------------------
      1          1           0        0.000000    0.000000    0.000000
      2          1           0       -3.450000    0.000000    0.000000
      3          9           0        2.250000    0.000000    0.000000
 ---------------------------------------------------------------------

 SCF Done:  E(UB3LYP) =  -100.774088368     a.u. after   17 cycles

 Alpha  occ. eigenvalues --  -24.67370  -1.08806  -0.38640  -0.38640  -0.36549
 Alpha  occ. eigenvalues --   -0.33059
 Alpha virt. eigenvalues --   -0.22169   0.20771   0.28018   0.92158   0.95575
 Alpha virt. eigenvalues --    0.95575   1.08291   1.21539   1.21539   1.24366
 Alpha virt. eigenvalues --    1.24366   1.24455   1.39585   2.11199   2.15437

  Beta  occ. eigenvalues --  -24.70035  -1.16336  -0.49101  -0.41285  -0.41285
  Beta virt. eigenvalues --   -0.12259  -0.04588   0.31569   0.40195   0.88677
  Beta virt. eigenvalues --    0.94421   0.94421   1.06223   1.38098   1.38098
  Beta virt. eigenvalues --    1.47918   1.47918   1.47940   1.50310   2.33278

 Mulliken charges and spin densities:
               1          2
     1  H    0.134213   0.840898
     2  H    0.001267   0.998759
     3  F   -0.135480  -0.839657
 Sum of Mulliken charges =   0.00000   1.00000

 Dipole moment (field-independent basis, Debye):
    X=             -1.5527    Y=             -0.0000    Z=             -0.0000  Tot=              1.5527
 Quadrupole moment (field-independent basis, Debye-Ang):
   XX=             -9.7910   YY=             -7.5247   ZZ=             -7.5247
   XY=             -0.0000   XZ=             -0.0000   YZ=             -0.0000

  Exact polarizability:      29.604      -0.000       2.037      -0.000      -0.000       2.037
 Approx polarizability:      40.474      -0.000       1.927      -0.000       0.000       1.927

 ******    1 imaginary frequencies (negative Signs) ******

                      1                      2                      3
                      A                      A                      A
 Frequencies --   -799.5129                81.6619               331.6355
 Red. masses --      1.0598                 1.0518                 1.0239
 Frc consts  --      0.3991                 0.0041                 0.0663
 IR Inten    --     93.3398                 0.2203                17.0395

                      4
                      A
 Frequencies --    331.6355
 Red. masses --      1.0239
 Frc consts  --      0.0663
 IR Inten    --     17.0395

 - Thermochemistry -
 -------------------
 Temperature   298.150 Kelvin.  Pressure   1.00000 Atm.
 Atom     1 has atomic number  1 and mass   1.00783

 Molecular mass:    21.01405 amu.
 Principal axes and moments of inertia in atomic units:
                           1         2         3
     Eigenvalues --     0.00000 124.24258 124.24258
           X            1.00000  -0.00000   0.00000
           Y            0.00000   1.00000   0.00000
           Z            0.00000   0.00000   1.00000
 This molecule is a prolate symmetric top.
 Rotational symmetry number  1.
 Rotational temperature (Kelvin)      0.69714
 Rotational constant (GHZ):          14.525948
    1 imaginary frequencies ignored.
 Zero-point vibrational energy       4455.7 (Joules/Mol)
                                    1.06493 (Kcal/Mol)
 Warning -- explicit consideration of   3 degrees of freedom as
           vibrations may cause significant error
 Vibrational temperatures:    117.49   477.15   477.15
          (Kelvin)

 Zero-point correction=                           0.001697 (Hartree/Particle)
 Thermal correction to Energy=                    0.005592
 Thermal correction to Enthalpy=                  0.006536
 Thermal correction to Gibbs Free Energy=        -0.020464
 Sum of electronic and zero-point Energies=           -100.772391
 Sum of electronic and thermal Energies=              -100.768496
 Sum of electronic and thermal Enthalpies=            -100.767552
 Sum of electronic and thermal Free Energies=         -100.794552

                     E (Thermal)             CV                S
                      KCal/Mol        Cal/Mol-Kelvin    Cal/Mol-Kelvin
 Total                    3.509             10.154             56.827
 Electronic               0.000              0.000              1.377
 Translational            0.889              2.981             35.068
 Rotational               0.592              1.987             14.026
 Vibrational              2.028              5.186              6.355
 Vibration     1          0.600              1.962              3.851
 Vibration     2          0.714              1.612              1.252
 Vibration     3          0.714              1.612              1.252

 Normal termination of Gaussian 16 at Fri Aug 22 17:17:46 2025.
