 Gaussian 16, Revision C.01,
 Gaussian 16:  ES64L-G16RevC.01  3-Jul-2019

 -----------------------------------------
 # sp b3lyp/6-311g** Force nosymm scf=(qc)
 -----------------------------------------

 -------------------
 Title Card Required
 -------------------
 Symbolic Z-matrix:
 Charge =  0 Multiplicity = 2

                          Input orientation:
 ---------------------------------------------------------------------
 Center     Atomic      Atomic             Coordinates (Angstroms)
 Number     Number       Type             X           Y           Z
 ---------------------------------------------------------------------
      1          1           0        0.000000    0.000000    0.000000
      2          1           0       -3.000000    0.000000    0.000000
      3          9           0        1.400000    0.000000    0.000000
 ---------------------------------------------------------------------

 SCF Done:  E(UB3LYP) =  -100.877596755     a.u. after    7 cycles

 Alpha  occ. eigenvalues --  -24.64291  -1.10233  -0.44537  -0.36643  -0.36643
 Alpha  occ. eigenvalues --   -0.34576
 Alpha virt. eigenvalues --   -0.11669   0.21729   0.27699   0.93188   0.93188
 Alpha virt. eigenvalues --    1.03186   1.15794   1.22944   1.22944   1.23498
 Alpha virt. eigenvalues --    1.32738   1.32738   1.72132   2.13783   2.21634

  Beta  occ. eigenvalues --  -24.64253  -1.10135  -0.44425  -0.36608  -0.36608
  Beta virt. eigenvalues --   -0.12841  -0.06726   0.24785   0.37419   0.93177
  Beta virt. eigenvalues --    0.93177   1.03287   1.15964   1.32603   1.32603
  Beta virt. eigenvalues --    1.44786   1.45133   1.45133   1.72218   2.21444

 Mulliken charges and spin densities:
               1          2
     1  H    0.353005  -0.006003
     2  H    0.005324   0.994115
     3  F   -0.358329   0.011888
 Sum of Mulliken charges =  -0.00000   1.00000

 Dipole moment (field-independent basis, Debye):
    X=             -2.5724    Y=              0.0000    Z=              0.0000  Tot=              2.5724
 Quadrupole moment (field-independent basis, Debye-Ang):
   XX=             -9.3729   YY=             -7.2653   ZZ=             -7.2653
   XY=              0.0000   XZ=              0.0000   YZ=              0.0000

  Exact polarizability:      15.103      -0.000       2.238       0.000       0.000       2.238
 Approx polarizability:      24.155      -0.000       2.174       0.000      -0.000       2.174

 ******    2 imaginary frequencies (negative Signs) ******

                      1                      2                      3
                      A                      A                      A
 Frequencies --  -1038.2875              -128.6060              1082.1230
 Red. masses --      1.0552                 1.0563                 1.0292
 Frc consts  --      0.6703                 0.0103                 0.7101
 IR Inten    --     72.5536                 0.6856               120.7435

                      4
                      A
 Frequencies --   1082.1230
 Red. masses --      1.0292
 Frc consts  --      0.7101
 IR Inten    --    120.7435

 - Thermochemistry -
 -------------------
 Temperature   298.150 Kelvin.  Pressure   1.00000 Atm.
 Atom     1 has atomic number  1 and mass   1.00783

 Molecular mass:    21.01405 amu.
 Principal axes and moments of inertia in atomic units:
                           1         2         3
     Eigenvalues --     0.00000  70.92437  70.92437
           X            1.00000  -0.00000   0.00000
           Y            0.00000   1.00000   0.00000
           Z            0.00000   0.00000   1.00000
 This molecule is a prolate symmetric top.
 Rotational symmetry number  1.
 Rotational temperature (Kelvin)      1.22122
 Rotational constant (GHZ):          25.445997
    2 imaginary frequencies ignored.
 Zero-point vibrational energy      12945.1 (Joules/Mol)
                                    3.09394 (Kcal/Mol)
 Vibrational temperatures:   1556.93  1556.93
          (Kelvin)

 Zero-point correction=                           0.004931 (Hartree/Particle)
 Thermal correction to Energy=                    0.007344
 Thermal correction to Enthalpy=                  0.008289
 Thermal correction to Gibbs Free Energy=        -0.015227
 Sum of electronic and zero-point Energies=           -100.872666
 Sum of electronic and thermal Energies=              -100.870252
 Sum of electronic and thermal Enthalpies=            -100.869308
 Sum of electronic and thermal Free Energies=         -100.892823

                     E (Thermal)             CV                S
                      KCal/Mol        Cal/Mol-Kelvin    Cal/Mol-Kelvin
 Total                    4.609              5.559             49.492
 Electronic               0.000              0.000              1.377
 Translational            0.889              2.981             35.068
 Rotational               0.592              1.987             12.912
 Vibrational              3.128              0.591              0.134

 Normal termination of Gaussian 16 at Fri Aug 22 16:20:52 2025.
