 Gaussian 16, Revision C.01,
 Gaussian 16:  ES64L-G16RevC.01  3-Jul-2019

 -----------------------------------------
 # sp b3lyp/6-311g** Force nosymm scf=(qc)
 -----------------------------------------

 -------------------
 Title Card Required
 -------------------
 Symbolic Z-matrix:
 Charge =  0 Multiplicity = 2

                          Input orientation:
 ---------------------------------------------------------------------
 Center     Atomic      Atomic             Coordinates (Angstroms)
 Number     Number       Type             X           Y           Z
 ---------------------------------------------------------------------
      1          1           0        0.000000    0.000000    0.000000
      2          1           0       -2.350000    0.000000    0.000000
      3          9           0        0.500000    0.000000    0.000000
 ---------------------------------------------------------------------

 SCF Done:  E(UB3LYP) =  -100.268931656     a.u. after    6 cycles

 Alpha  occ. eigenvalues --  -24.63003  -1.42319  -0.63510  -0.44299  -0.44299
 Alpha  occ. eigenvalues --   -0.34375
 Alpha virt. eigenvalues --    0.10072   0.25464   0.60494   0.89244   0.90193
 Alpha virt. eigenvalues --    0.90193   1.18383   1.23181   1.23181   1.51802
 Alpha virt. eigenvalues --    1.58534   1.58534   1.99036   2.18189   3.76668

  Beta  occ. eigenvalues --  -24.62994  -1.42290  -0.63489  -0.44295  -0.44295
  Beta virt. eigenvalues --   -0.08054   0.11429   0.38165   0.60138   0.89377
  Beta virt. eigenvalues --    0.90172   0.90172   1.31374   1.45352   1.45352
  Beta virt. eigenvalues --    1.58513   1.58513   1.61605   2.01816   2.46117

 Mulliken charges and spin densities:
               1          2
     1  H    0.113683   0.005179
     2  H    0.005845   0.992962
     3  F   -0.119528   0.001859
 Sum of Mulliken charges =   0.00000   1.00000

 Dipole moment (field-independent basis, Debye):
    X=             -1.3478    Y=             -0.0000    Z=              0.0000  Tot=              1.3478
 Quadrupole moment (field-independent basis, Debye-Ang):
   XX=             -6.4805   YY=             -6.4282   ZZ=             -6.4282
   XY=             -0.0000   XZ=              0.0000   YZ=              0.0000

  Exact polarizability:       4.616       0.000       2.437      -0.000       0.000       2.437
 Approx polarizability:       4.528       0.000       2.422      -0.000       0.000       2.422

 ******    2 imaginary frequencies (negative Signs) ******

                      1                      2                      3
                      A                      A                      A
 Frequencies --  -9527.9251             -9527.9251               203.7886
 Red. masses --      1.0412                 1.0412                 1.0533
 Frc consts  --     55.6882                55.6882                 0.0258
 IR Inten    --    259.9687               259.9687                 0.0855

                      4
                      A
 Frequencies --  19158.7604
 Red. masses --      1.0583
 Frc consts  --    228.8736
 IR Inten    --     85.2419

 - Thermochemistry -
 -------------------
 Temperature   298.150 Kelvin.  Pressure   1.00000 Atm.
 Atom     1 has atomic number  1 and mass   1.00783

 Molecular mass:    21.01405 amu.
 Principal axes and moments of inertia in atomic units:
                           1         2         3
     Eigenvalues --     0.00000  28.19562  28.19562
           X            1.00000  -0.00000   0.00000
           Y            0.00000   1.00000   0.00000
           Z            0.00000   0.00000   1.00000
 This molecule is a prolate symmetric top.
 Rotational symmetry number  1.
 Rotational temperature (Kelvin)      3.07189
 Rotational constant (GHZ):          64.007861
    2 imaginary frequencies ignored.
 Zero-point vibrational energy     115813.8 (Joules/Mol)
                                   27.68015 (Kcal/Mol)
 Warning -- explicit consideration of   1 degrees of freedom as
           vibrations may cause significant error
 Vibrational temperatures:    293.21 27565.18
          (Kelvin)

 Zero-point correction=                           0.044111 (Hartree/Particle)
 Thermal correction to Energy=                    0.047026
 Thermal correction to Enthalpy=                  0.047971
 Thermal correction to Gibbs Free Energy=         0.024393
 Sum of electronic and zero-point Energies=           -100.224821
 Sum of electronic and thermal Energies=              -100.221905
 Sum of electronic and thermal Enthalpies=            -100.220961
 Sum of electronic and thermal Free Energies=         -100.244539

                     E (Thermal)             CV                S
                      KCal/Mol        Cal/Mol-Kelvin    Cal/Mol-Kelvin
 Total                   29.510              6.803             49.623
 Electronic               0.000              0.000              1.377
 Translational            0.889              2.981             35.068
 Rotational               0.592              1.987             11.079
 Vibrational             28.028              1.835              2.099
 Vibration     1          0.639              1.835              2.099

 Normal termination of Gaussian 16 at Fri Aug 22 15:37:09 2025.
