 Gaussian 16, Revision C.01,
 Gaussian 16:  ES64L-G16RevC.01  3-Jul-2019

 -----------------------------------------
 # sp b3lyp/6-311g** Force nosymm scf=(qc)
 -----------------------------------------

 -------------------
 Title Card Required
 -------------------
 Symbolic Z-matrix:
 Charge =  0 Multiplicity = 2

                          Input orientation:
 ---------------------------------------------------------------------
 Center     Atomic      Atomic             Coordinates (Angstroms)
 Number     Number       Type             X           Y           Z
 ---------------------------------------------------------------------
      1          1           0        0.000000    0.000000    0.000000
      2          1           0       -2.550000    0.000000    0.000000
      3          9           0        1.500000    0.000000    0.000000
 ---------------------------------------------------------------------

 SCF Done:  E(UB3LYP) =  -100.855999820     a.u. after    7 cycles

 Alpha  occ. eigenvalues --  -24.64124  -1.09711  -0.43387  -0.36257  -0.36257
 Alpha  occ. eigenvalues --   -0.35579
 Alpha virt. eigenvalues --   -0.13559   0.22833   0.26810   0.93809   0.93809
 Alpha virt. eigenvalues --    1.03471   1.10510   1.21907   1.21907   1.24353
 Alpha virt. eigenvalues --    1.32005   1.32005   1.74487   2.13006   2.20254

  Beta  occ. eigenvalues --  -24.63854  -1.08997  -0.42632  -0.36001  -0.36001
  Beta virt. eigenvalues --   -0.15888  -0.07857   0.25042   0.35664   0.93712
  Beta virt. eigenvalues --    0.93712   1.04136   1.10863   1.30803   1.30803
  Beta virt. eigenvalues --    1.42493   1.42493   1.43420   1.74269   2.18338

 Mulliken charges and spin densities:
               1          2
     1  H    0.335591  -0.065413
     2  H    0.017051   0.980316
     3  F   -0.352643   0.085096
 Sum of Mulliken charges =  -0.00000   1.00000

 Dipole moment (field-independent basis, Debye):
    X=             -2.8058    Y=              0.0000    Z=             -0.0000  Tot=              2.8058
 Quadrupole moment (field-independent basis, Debye-Ang):
   XX=             -9.3916   YY=             -7.3243   ZZ=             -7.3243
   XY=              0.0000   XZ=             -0.0000   YZ=              0.0000

  Exact polarizability:      21.617      -0.000       2.201       0.000      -0.000       2.201
 Approx polarizability:      34.381      -0.000       2.129       0.000      -0.000       2.129

 ******    2 imaginary frequencies (negative Signs) ******

                      1                      2                      3
                      A                      A                      A
 Frequencies --  -1370.4223              -239.8352               994.3728
 Red. masses --      1.0491                 1.0625                 1.0255
 Frc consts  --      1.1609                 0.0360                 0.5974
 IR Inten    --     87.3594                 2.4707                99.5903

                      4
                      A
 Frequencies --    994.3728
 Red. masses --      1.0255
 Frc consts  --      0.5974
 IR Inten    --     99.5903

 - Thermochemistry -
 -------------------
 Temperature   298.150 Kelvin.  Pressure   1.00000 Atm.
 Atom     1 has atomic number  1 and mass   1.00783

 Molecular mass:    21.01405 amu.
 Principal axes and moments of inertia in atomic units:
                           1         2         3
     Eigenvalues --     0.00000  61.81378  61.81378
           X            1.00000  -0.00000   0.00000
           Y            0.00000   1.00000   0.00000
           Z            0.00000   0.00000   1.00000
 This molecule is a prolate symmetric top.
 Rotational symmetry number  1.
 Rotational temperature (Kelvin)      1.40121
 Rotational constant (GHZ):          29.196421
    2 imaginary frequencies ignored.
 Zero-point vibrational energy      11895.3 (Joules/Mol)
                                    2.84305 (Kcal/Mol)
 Vibrational temperatures:   1430.68  1430.68
          (Kelvin)

 Zero-point correction=                           0.004531 (Hartree/Particle)
 Thermal correction to Energy=                    0.006966
 Thermal correction to Enthalpy=                  0.007911
 Thermal correction to Gibbs Free Energy=        -0.015502
 Sum of electronic and zero-point Energies=           -100.851469
 Sum of electronic and thermal Energies=              -100.849033
 Sum of electronic and thermal Enthalpies=            -100.848089
 Sum of electronic and thermal Free Energies=         -100.871502

                     E (Thermal)             CV                S
                      KCal/Mol        Cal/Mol-Kelvin    Cal/Mol-Kelvin
 Total                    4.372              5.735             49.276
 Electronic               0.000              0.000              1.377
 Translational            0.889              2.981             35.068
 Rotational               0.592              1.987             12.639
 Vibrational              2.890              0.767              0.191

 Normal termination of Gaussian 16 at Fri Aug 22 16:25:58 2025.
