 Gaussian 16, Revision C.01,
 Gaussian 16:  ES64L-G16RevC.01  3-Jul-2019

 -----------------------------------------
 # sp b3lyp/6-311g** Force nosymm scf=(qc)
 -----------------------------------------

 -------------------
 Title Card Required
 -------------------
 Symbolic Z-matrix:
 Charge =  0 Multiplicity = 2

                          Input orientation:
 ---------------------------------------------------------------------
 Center     Atomic      Atomic             Coordinates (Angstroms)
 Number     Number       Type             X           Y           Z
 ---------------------------------------------------------------------
      1          1           0        0.000000    0.000000    0.000000
      2          1           0       -3.450000    0.000000    0.000000
      3          9           0        2.450000    0.000000    0.000000
 ---------------------------------------------------------------------

 SCF Done:  E(UB3LYP) =  -100.768674799     a.u. after   17 cycles

 Alpha  occ. eigenvalues --  -24.71439  -1.17672  -0.50537  -0.42459  -0.42459
 Alpha  occ. eigenvalues --   -0.32972
 Alpha virt. eigenvalues --   -0.10606   0.23439   0.35020   0.89493   0.93770
 Alpha virt. eigenvalues --    0.93770   1.06329   1.24541   1.24541   1.24740
 Alpha virt. eigenvalues --    1.40090   1.40090   1.45395   2.14498   2.35852

  Beta  occ. eigenvalues --  -24.68625  -1.09674  -0.39657  -0.39657  -0.35569
  Beta virt. eigenvalues --   -0.23141  -0.06865   0.23906   0.37819   0.95107
  Beta virt. eigenvalues --    0.95107   0.95332   1.08537   1.21955   1.21955
  Beta virt. eigenvalues --    1.31245   1.45595   1.45860   1.45860   2.12699

 Mulliken charges and spin densities:
               1          2
     1  H    0.096925  -0.886181
     2  H    0.001081   0.997626
     3  F   -0.098006   0.888554
 Sum of Mulliken charges =  -0.00000   1.00000

 Dipole moment (field-independent basis, Debye):
    X=             -1.2369    Y=             -0.0000    Z=             -0.0000  Tot=              1.2369
 Quadrupole moment (field-independent basis, Debye-Ang):
   XX=             -9.3807   YY=             -7.5660   ZZ=             -7.5660
   XY=             -0.0000   XZ=             -0.0000   YZ=              0.0000

  Exact polarizability:      30.765      -0.000       2.027      -0.000      -0.000       2.027
 Approx polarizability:      39.218      -0.000       1.921      -0.000       0.000       1.921

 ******    2 imaginary frequencies (negative Signs) ******

                      1                      2                      3
                      A                      A                      A
 Frequencies --   -653.3366              -128.0925               258.6390
 Red. masses --      1.0541                 1.0574                 1.0226
 Frc consts  --      0.2651                 0.0102                 0.0403
 IR Inten    --     84.4699                 0.3569                 8.9336

                      4
                      A
 Frequencies --    258.6390
 Red. masses --      1.0226
 Frc consts  --      0.0403
 IR Inten    --      8.9336

 - Thermochemistry -
 -------------------
 Temperature   298.150 Kelvin.  Pressure   1.00000 Atm.
 Atom     1 has atomic number  1 and mass   1.00783

 Molecular mass:    21.01405 amu.
 Principal axes and moments of inertia in atomic units:
                           1         2         3
     Eigenvalues --     0.00000 134.84995 134.84995
           X            1.00000  -0.00000   0.00000
           Y            0.00000   1.00000   0.00000
           Z            0.00000   0.00000   1.00000
 This molecule is a prolate symmetric top.
 Rotational symmetry number  1.
 Rotational temperature (Kelvin)      0.64230
 Rotational constant (GHZ):          13.383329
    2 imaginary frequencies ignored.
 Zero-point vibrational energy       3094.0 (Joules/Mol)
                                    0.73949 (Kcal/Mol)
 Warning -- explicit consideration of   2 degrees of freedom as
           vibrations may cause significant error
 Vibrational temperatures:    372.12   372.12
          (Kelvin)

 Zero-point correction=                           0.001178 (Hartree/Particle)
 Thermal correction to Energy=                    0.004488
 Thermal correction to Enthalpy=                  0.005432
 Thermal correction to Gibbs Free Energy=        -0.020214
 Sum of electronic and zero-point Energies=           -100.767496
 Sum of electronic and thermal Energies=              -100.764187
 Sum of electronic and thermal Enthalpies=            -100.763243
 Sum of electronic and thermal Free Energies=         -100.788889

                     E (Thermal)             CV                S
                      KCal/Mol        Cal/Mol-Kelvin    Cal/Mol-Kelvin
 Total                    2.816              8.464             53.977
 Electronic               0.000              0.000              1.377
 Translational            0.889              2.981             35.068
 Rotational               0.592              1.987             14.189
 Vibrational              1.335              3.496              3.342
 Vibration     1          0.667              1.748              1.671
 Vibration     2          0.667              1.748              1.671

 Normal termination of Gaussian 16 at Fri Aug 22 17:39:42 2025.
