 Gaussian 16, Revision C.01,
 Gaussian 16:  ES64L-G16RevC.01  3-Jul-2019

 -----------------------------------------
 # sp b3lyp/6-311g** Force nosymm scf=(qc)
 -----------------------------------------

 -------------------
 Title Card Required
 -------------------
 Symbolic Z-matrix:
 Charge =  0 Multiplicity = 2

                          Input orientation:
 ---------------------------------------------------------------------
 Center     Atomic      Atomic             Coordinates (Angstroms)
 Number     Number       Type             X           Y           Z
 ---------------------------------------------------------------------
      1          1           0        0.000000    0.000000    0.000000
      2          1           0       -3.850000    0.000000    0.000000
      3          9           0        2.350000    0.000000    0.000000
 ---------------------------------------------------------------------

 SCF Done:  E(UB3LYP) =  -100.771111612     a.u. after   14 cycles

 Alpha  occ. eigenvalues --  -24.70802  -1.17069  -0.49889  -0.41928  -0.41928
 Alpha  occ. eigenvalues --   -0.32893
 Alpha virt. eigenvalues --   -0.11191   0.23192   0.34395   0.88930   0.94076
 Alpha virt. eigenvalues --    0.94076   1.06169   1.24609   1.24609   1.24632
 Alpha virt. eigenvalues --    1.39050   1.39050   1.47147   2.14006   2.34856

  Beta  occ. eigenvalues --  -24.68053  -1.09275  -0.39194  -0.39194  -0.36019
  Beta virt. eigenvalues --   -0.22704  -0.06268   0.23487   0.38097   0.93572
  Beta virt. eigenvalues --    0.95342   0.95342   1.08271   1.21694   1.21694
  Beta virt. eigenvalues --    1.34993   1.46316   1.46515   1.46515   2.11727

 Mulliken charges and spin densities:
               1          2
     1  H    0.114458  -0.866399
     2  H    0.000440   0.999111
     3  F   -0.114897   0.867288
 Sum of Mulliken charges =  -0.00000   1.00000

 Dipole moment (field-independent basis, Debye):
    X=             -1.3721    Y=             -0.0000    Z=             -0.0000  Tot=              1.3721
 Quadrupole moment (field-independent basis, Debye-Ang):
   XX=             -9.6132   YY=             -7.5482   ZZ=             -7.5482
   XY=             -0.0000   XZ=             -0.0000   YZ=              0.0000

  Exact polarizability:      28.734       0.000       2.032      -0.000      -0.000       2.032
 Approx polarizability:      38.455       0.000       1.923       0.000       0.000       1.923

 ******    2 imaginary frequencies (negative Signs) ******

                      1                      2                      3
                      A                      A                      A
 Frequencies --   -721.9496               -80.6943               293.8469
 Red. masses --      1.0570                 1.0546                 1.0249
 Frc consts  --      0.3246                 0.0040                 0.0521
 IR Inten    --     93.6457                 0.0549                12.7260

                      4
                      A
 Frequencies --    293.8469
 Red. masses --      1.0249
 Frc consts  --      0.0521
 IR Inten    --     12.7260

 - Thermochemistry -
 -------------------
 Temperature   298.150 Kelvin.  Pressure   1.00000 Atm.
 Atom     1 has atomic number  1 and mass   1.00783

 Molecular mass:    21.01405 amu.
 Principal axes and moments of inertia in atomic units:
                           1         2         3
     Eigenvalues --     0.00000 145.60342 145.60342
           X            1.00000  -0.00000   0.00000
           Y            0.00000   1.00000   0.00000
           Z            0.00000   0.00000   1.00000
 This molecule is a prolate symmetric top.
 Rotational symmetry number  1.
 Rotational temperature (Kelvin)      0.59486
 Rotational constant (GHZ):          12.394910
    2 imaginary frequencies ignored.
 Zero-point vibrational energy       3515.2 (Joules/Mol)
                                    0.84015 (Kcal/Mol)
 Warning -- explicit consideration of   2 degrees of freedom as
           vibrations may cause significant error
 Vibrational temperatures:    422.78   422.78
          (Kelvin)

 Zero-point correction=                           0.001339 (Hartree/Particle)
 Thermal correction to Energy=                    0.004555
 Thermal correction to Enthalpy=                  0.005499
 Thermal correction to Gibbs Free Energy=        -0.020011
 Sum of electronic and zero-point Energies=           -100.769773
 Sum of electronic and thermal Energies=              -100.766556
 Sum of electronic and thermal Enthalpies=            -100.765612
 Sum of electronic and thermal Free Energies=         -100.791122

                     E (Thermal)             CV                S
                      KCal/Mol        Cal/Mol-Kelvin    Cal/Mol-Kelvin
 Total                    2.858              8.338             53.691
 Electronic               0.000              0.000              1.377
 Translational            0.889              2.981             35.068
 Rotational               0.592              1.987             14.342
 Vibrational              1.377              3.370              2.903
 Vibration     1          0.689              1.685              1.452
 Vibration     2          0.689              1.685              1.452

 Normal termination of Gaussian 16 at Fri Aug 22 17:28:02 2025.
