 Gaussian 16, Revision C.01,
 Gaussian 16:  ES64L-G16RevC.01  3-Jul-2019

 -----------------------------------------
 # sp b3lyp/6-311g** Force nosymm scf=(qc)
 -----------------------------------------

 -------------------
 Title Card Required
 -------------------
 Symbolic Z-matrix:
 Charge =  0 Multiplicity = 2

                          Input orientation:
 ---------------------------------------------------------------------
 Center     Atomic      Atomic             Coordinates (Angstroms)
 Number     Number       Type             X           Y           Z
 ---------------------------------------------------------------------
      1          1           0        0.000000    0.000000    0.000000
      2          1           0       -2.350000    0.000000    0.000000
      3          9           0        2.500000    0.000000    0.000000
 ---------------------------------------------------------------------

 SCF Done:  E(UB3LYP) =  -100.773011563     a.u. after   17 cycles

 Alpha  occ. eigenvalues --  -24.71753  -1.17959  -0.50851  -0.42710  -0.42710
 Alpha  occ. eigenvalues --   -0.34065
 Alpha virt. eigenvalues --   -0.12272   0.24914   0.32836   0.90126   0.93629
 Alpha virt. eigenvalues --    0.93629   1.06559   1.23662   1.23662   1.26787
 Alpha virt. eigenvalues --    1.37030   1.37030   1.42939   2.13807   2.33013

  Beta  occ. eigenvalues --  -24.68910  -1.09866  -0.39876  -0.39876  -0.35269
  Beta virt. eigenvalues --   -0.23407  -0.10231   0.26103   0.33993   0.94994
  Beta virt. eigenvalues --    0.94994   0.97111   1.09504   1.22461   1.22461
  Beta virt. eigenvalues --    1.30010   1.40324   1.40324   1.43343   2.13847

 Mulliken charges and spin densities:
               1          2
     1  H    0.073077  -0.853032
     2  H    0.015386   0.954664
     3  F   -0.088462   0.898368
 Sum of Mulliken charges =  -0.00000   1.00000

 Dipole moment (field-independent basis, Debye):
    X=             -1.2981    Y=             -0.0000    Z=              0.0000  Tot=              1.2981
 Quadrupole moment (field-independent basis, Debye-Ang):
   XX=             -8.6672   YY=             -7.6240   ZZ=             -7.6240
   XY=             -0.0000   XZ=              0.0000   YZ=              0.0000

  Exact polarizability:      48.101      -0.000       2.013       0.000       0.000       2.013
 Approx polarizability:      50.397      -0.000       1.919       0.000      -0.000       1.919

 ******    2 imaginary frequencies (negative Signs) ******

                      1                      2                      3
                      A                      A                      A
 Frequencies --   -933.5625              -367.2966               369.1727
 Red. masses --      1.0148                 1.1002                 1.0172
 Frc consts  --      0.5211                 0.0875                 0.0817
 IR Inten    --     47.3332                35.0687                 4.0608

                      4
                      A
 Frequencies --    369.1727
 Red. masses --      1.0172
 Frc consts  --      0.0817
 IR Inten    --      4.0608

 - Thermochemistry -
 -------------------
 Temperature   298.150 Kelvin.  Pressure   1.00000 Atm.
 Atom     1 has atomic number  1 and mass   1.00783

 Molecular mass:    21.01405 amu.
 Principal axes and moments of inertia in atomic units:
                           1         2         3
     Eigenvalues --     0.00000  97.82682  97.82682
           X            1.00000  -0.00000   0.00000
           Y            0.00000   1.00000   0.00000
           Z            0.00000   0.00000   1.00000
 This molecule is a prolate symmetric top.
 Rotational symmetry number  1.
 Rotational temperature (Kelvin)      0.88538
 Rotational constant (GHZ):          18.448327
    2 imaginary frequencies ignored.
 Zero-point vibrational energy       4416.3 (Joules/Mol)
                                    1.05552 (Kcal/Mol)
 Warning -- explicit consideration of   2 degrees of freedom as
           vibrations may cause significant error
 Vibrational temperatures:    531.16   531.16
          (Kelvin)

 Zero-point correction=                           0.001682 (Hartree/Particle)
 Thermal correction to Energy=                    0.004724
 Thermal correction to Enthalpy=                  0.005668
 Thermal correction to Gibbs Free Energy=        -0.019117
 Sum of electronic and zero-point Energies=           -100.771329
 Sum of electronic and thermal Energies=              -100.768288
 Sum of electronic and thermal Enthalpies=            -100.767344
 Sum of electronic and thermal Free Energies=         -100.792128

                     E (Thermal)             CV                S
                      KCal/Mol        Cal/Mol-Kelvin    Cal/Mol-Kelvin
 Total                    2.964              8.039             52.163
 Electronic               0.000              0.000              1.377
 Translational            0.889              2.981             35.068
 Rotational               0.592              1.987             13.551
 Vibrational              1.483              3.071              2.166
 Vibration     1          0.741              1.536              1.083
 Vibration     2          0.741              1.536              1.083

 Normal termination of Gaussian 16 at Fri Aug 22 17:45:08 2025.
