 Gaussian 16, Revision C.01,
 Gaussian 16:  ES64L-G16RevC.01  3-Jul-2019

 -----------------------------------------
 # sp b3lyp/6-311g** Force nosymm scf=(qc)
 -----------------------------------------

 -------------------
 Title Card Required
 -------------------
 Symbolic Z-matrix:
 Charge =  0 Multiplicity = 2

                          Input orientation:
 ---------------------------------------------------------------------
 Center     Atomic      Atomic             Coordinates (Angstroms)
 Number     Number       Type             X           Y           Z
 ---------------------------------------------------------------------
      1          1           0        0.000000    0.000000    0.000000
      2          1           0       -1.900000    0.000000    0.000000
      3          9           0        1.000000    0.000000    0.000000
 ---------------------------------------------------------------------

 SCF Done:  E(UB3LYP) =  -100.967147668     a.u. after    6 cycles

 Alpha  occ. eigenvalues --  -24.63723  -1.15738  -0.51776  -0.38431  -0.38431
 Alpha  occ. eigenvalues --   -0.36374
 Alpha virt. eigenvalues --    0.04478   0.23608   0.33706   0.94361   0.94361
 Alpha virt. eigenvalues --    0.98642   1.13622   1.20650   1.20650   1.36744
 Alpha virt. eigenvalues --    1.36744   1.50937   1.87109   2.21494   2.34753

  Beta  occ. eigenvalues --  -24.63619  -1.15479  -0.51175  -0.38341  -0.38341
  Beta virt. eigenvalues --   -0.13196   0.06901   0.32163   0.35263   0.94379
  Beta virt. eigenvalues --    0.94379   0.99092   1.23076   1.34774   1.34774
  Beta virt. eigenvalues --    1.41527   1.41527   1.57877   1.91784   2.34587

 Mulliken charges and spin densities:
               1          2
     1  H    0.302782   0.004461
     2  H    0.020434   0.967443
     3  F   -0.323216   0.028095
 Sum of Mulliken charges =   0.00000   1.00000

 Dipole moment (field-independent basis, Debye):
    X=             -2.2411    Y=             -0.0000    Z=              0.0000  Tot=              2.2411
 Quadrupole moment (field-independent basis, Debye-Ang):
   XX=             -7.7378   YY=             -6.9090   ZZ=             -6.9090
   XY=             -0.0000   XZ=              0.0000   YZ=             -0.0000

  Exact polarizability:      11.129       0.000       2.468      -0.000       0.000       2.468
 Approx polarizability:      12.175       0.000       2.451      -0.000       0.000       2.451

                      1                      2                      3
                      A                      A                      A
 Frequencies --    130.7936               928.6208               928.6208
 Red. masses --      1.0514                 1.0272                 1.0272
 Frc consts  --      0.0106                 0.5219                 0.5219
 IR Inten    --      3.4712               128.7147               128.7147

                      4
                      A
 Frequencies --   2954.7769
 Red. masses --      1.0602
 Frc consts  --      5.4536
 IR Inten    --    200.7938

 - Thermochemistry -
 -------------------
 Temperature   298.150 Kelvin.  Pressure   1.00000 Atm.
 Atom     1 has atomic number  1 and mass   1.00783

 Molecular mass:    21.01405 amu.
 Principal axes and moments of inertia in atomic units:
                           1         2         3
     Eigenvalues --     0.00000  31.24132  31.24132
           X            1.00000  -0.00000   0.00000
           Y            0.00000   1.00000   0.00000
           Z            0.00000   0.00000   1.00000
 This molecule is a prolate symmetric top.
 Rotational symmetry number  1.
 Rotational temperature (Kelvin)      2.77242
 Rotational constant (GHZ):          57.767766
 Zero-point vibrational energy      29564.6 (Joules/Mol)
                                    7.06610 (Kcal/Mol)
 Warning -- explicit consideration of   1 degrees of freedom as
           vibrations may cause significant error
 Vibrational temperatures:    188.18  1336.08  1336.08  4251.26
          (Kelvin)

 Zero-point correction=                           0.011261 (Hartree/Particle)
 Thermal correction to Energy=                    0.014395
 Thermal correction to Enthalpy=                  0.015339
 Thermal correction to Gibbs Free Energy=        -0.008851
 Sum of electronic and zero-point Energies=           -100.955887
 Sum of electronic and thermal Energies=              -100.952752
 Sum of electronic and thermal Enthalpies=            -100.951808
 Sum of electronic and thermal Free Energies=         -100.975998

                     E (Thermal)             CV                S
                      KCal/Mol        Cal/Mol-Kelvin    Cal/Mol-Kelvin
 Total                    9.033              7.815             50.912
 Electronic               0.000              0.000              1.377
 Translational            0.889              2.981             35.068
 Rotational               0.592              1.987             11.283
 Vibrational              7.552              2.847              3.184
 Vibration     1          0.612              1.923              2.934

 Normal termination of Gaussian 16 at Fri Aug 22 16:00:29 2025.
