 Gaussian 16, Revision C.01,
 Gaussian 16:  ES64L-G16RevC.01  3-Jul-2019

 -----------------------------------------
 # sp b3lyp/6-311g** Force nosymm scf=(qc)
 -----------------------------------------

 -------------------
 Title Card Required
 -------------------
 Symbolic Z-matrix:
 Charge =  0 Multiplicity = 2

                          Input orientation:
 ---------------------------------------------------------------------
 Center     Atomic      Atomic             Coordinates (Angstroms)
 Number     Number       Type             X           Y           Z
 ---------------------------------------------------------------------
      1          1           0        0.000000    0.000000    0.000000
      2          1           0       -2.950000    0.000000    0.000000
      3          9           0        0.900000    0.000000    0.000000
 ---------------------------------------------------------------------

 SCF Done:  E(UB3LYP) =  -100.971589410     a.u. after    5 cycles

 Alpha  occ. eigenvalues --  -24.63967  -1.19020  -0.53844  -0.39629  -0.39629
 Alpha  occ. eigenvalues --   -0.34155
 Alpha virt. eigenvalues --    0.03515   0.25179   0.39345   0.94359   0.94359
 Alpha virt. eigenvalues --    0.97765   1.22352   1.23377   1.23377   1.32762
 Alpha virt. eigenvalues --    1.37295   1.37295   2.01102   2.14624   2.37382

  Beta  occ. eigenvalues --  -24.63962  -1.19007  -0.53827  -0.39624  -0.39624
  Beta virt. eigenvalues --   -0.07213   0.04700   0.38479   0.39617   0.94360
  Beta virt. eigenvalues --    0.94360   0.97757   1.30215   1.37291   1.37291
  Beta virt. eigenvalues --    1.48926   1.48926   1.50250   2.01279   2.37256

 Mulliken charges and spin densities:
               1          2
     1  H    0.294007   0.001592
     2  H    0.002593   0.996521
     3  F   -0.296600   0.001887
 Sum of Mulliken charges =   0.00000   1.00000

 Dipole moment (field-independent basis, Debye):
    X=             -1.9197    Y=              0.0000    Z=              0.0000  Tot=              1.9197
 Quadrupole moment (field-independent basis, Debye-Ang):
   XX=             -7.8112   YY=             -6.8675   ZZ=             -6.8675
   XY=              0.0000   XZ=              0.0000   YZ=              0.0000

  Exact polarizability:       6.400      -0.000       2.437       0.000      -0.000       2.437
 Approx polarizability:       7.211      -0.000       2.417       0.000      -0.000       2.417

 ******    3 imaginary frequencies (negative Signs) ******

                      1                      2                      3
                      A                      A                      A
 Frequencies --   -623.9322              -623.9322               -60.4676
 Red. masses --      1.0360                 1.0360                 1.0532
 Frc consts  --      0.2376                 0.2376                 0.0023
 IR Inten    --    175.9343               175.9343                 0.2040

                      4
                      A
 Frequencies --   4430.1024
 Red. masses --      1.0584
 Frc consts  --     12.2380
 IR Inten    --    109.6730

 - Thermochemistry -
 -------------------
 Temperature   298.150 Kelvin.  Pressure   1.00000 Atm.
 Atom     1 has atomic number  1 and mass   1.00783

 Molecular mass:    21.01405 amu.
 Principal axes and moments of inertia in atomic units:
                           1         2         3
     Eigenvalues --     0.00000  52.36706  52.36706
           X            1.00000  -0.00000   0.00000
           Y            0.00000   1.00000   0.00000
           Z            0.00000   0.00000   1.00000
 This molecule is a prolate symmetric top.
 Rotational symmetry number  1.
 Rotational temperature (Kelvin)      1.65398
 Rotational constant (GHZ):          34.463292
    3 imaginary frequencies ignored.
 Zero-point vibrational energy      26497.9 (Joules/Mol)
                                    6.33315 (Kcal/Mol)
 Vibrational temperatures:   6373.93
          (Kelvin)

 Zero-point correction=                           0.010093 (Hartree/Particle)
 Thermal correction to Energy=                    0.012453
 Thermal correction to Enthalpy=                  0.013397
 Thermal correction to Gibbs Free Energy=        -0.009768
 Sum of electronic and zero-point Energies=           -100.961497
 Sum of electronic and thermal Energies=              -100.959136
 Sum of electronic and thermal Enthalpies=            -100.958192
 Sum of electronic and thermal Free Energies=         -100.981357

                     E (Thermal)             CV                S
                      KCal/Mol        Cal/Mol-Kelvin    Cal/Mol-Kelvin
 Total                    7.814              4.968             48.755
 Electronic               0.000              0.000              1.377
 Translational            0.889              2.981             35.068
 Rotational               0.592              1.987             12.310
 Vibrational              6.333              0.000              0.000

 Normal termination of Gaussian 16 at Fri Aug 22 15:56:26 2025.
