 Gaussian 16, Revision C.01,
 Gaussian 16:  ES64L-G16RevC.01  3-Jul-2019

 -----------------------------------------
 # sp b3lyp/6-311g** Force nosymm scf=(qc)
 -----------------------------------------

 -------------------
 Title Card Required
 -------------------
 Symbolic Z-matrix:
 Charge =  0 Multiplicity = 2

                          Input orientation:
 ---------------------------------------------------------------------
 Center     Atomic      Atomic             Coordinates (Angstroms)
 Number     Number       Type             X           Y           Z
 ---------------------------------------------------------------------
      1          1           0        0.000000    0.000000    0.000000
      2          1           0       -3.500000    0.000000    0.000000
      3          9           0        0.750000    0.000000    0.000000
 ---------------------------------------------------------------------

 SCF Done:  E(UB3LYP) =  -100.921950598     a.u. after    6 cycles

 Alpha  occ. eigenvalues --  -24.63453  -1.25475  -0.57382  -0.41193  -0.41193
 Alpha  occ. eigenvalues --   -0.33472
 Alpha virt. eigenvalues --    0.05840   0.24816   0.49191   0.93923   0.93923
 Alpha virt. eigenvalues --    0.96514   1.23772   1.24040   1.24040   1.30649
 Alpha virt. eigenvalues --    1.41707   1.41707   2.00393   2.14535   2.67716

  Beta  occ. eigenvalues --  -24.63452  -1.25473  -0.57381  -0.41192  -0.41192
  Beta virt. eigenvalues --   -0.05356   0.06333   0.39422   0.49163   0.93923
  Beta virt. eigenvalues --    0.93923   0.96505   1.30137   1.41707   1.41707
  Beta virt. eigenvalues --    1.50912   1.50922   1.50922   2.00417   2.44644

 Mulliken charges and spin densities:
               1          2
     1  H    0.267561   0.000610
     2  H    0.000783   0.999036
     3  F   -0.268344   0.000354
 Sum of Mulliken charges =   0.00000   1.00000

 Dipole moment (field-independent basis, Debye):
    X=             -1.6673    Y=             -0.0000    Z=             -0.0000  Tot=              1.6673
 Quadrupole moment (field-independent basis, Debye-Ang):
   XX=             -7.4408   YY=             -6.7168   ZZ=             -6.7168
   XY=             -0.0000   XZ=             -0.0000   YZ=              0.0000

  Exact polarizability:       4.322       0.000       2.447       0.000       0.000       2.447
 Approx polarizability:       4.765       0.000       2.428       0.000       0.000       2.428

 ******    3 imaginary frequencies (negative Signs) ******

                      1                      2                      3
                      A                      A                      A
 Frequencies --  -2706.7063             -2706.7063               -41.0404
 Red. masses --      1.0411                 1.0411                 1.0532
 Frc consts  --      4.4938                 4.4938                 0.0010
 IR Inten    --    204.5336               204.5336                 0.0306

                      4
                      A
 Frequencies --   7586.7268
 Red. masses --      1.0583
 Frc consts  --     35.8900
 IR Inten    --    106.7797

 - Thermochemistry -
 -------------------
 Temperature   298.150 Kelvin.  Pressure   1.00000 Atm.
 Atom     1 has atomic number  1 and mass   1.00783

 Molecular mass:    21.01405 amu.
 Principal axes and moments of inertia in atomic units:
                           1         2         3
     Eigenvalues --     0.00000  62.71636  62.71636
           X            1.00000  -0.00000   0.00000
           Y            0.00000   1.00000   0.00000
           Z            0.00000   0.00000   1.00000
 This molecule is a prolate symmetric top.
 Rotational symmetry number  1.
 Rotational temperature (Kelvin)      1.38104
 Rotational constant (GHZ):          28.776242
    3 imaginary frequencies ignored.
 Zero-point vibrational energy      45378.7 (Joules/Mol)
                                   10.84577 (Kcal/Mol)
 Vibrational temperatures:  10915.61
          (Kelvin)

 Zero-point correction=                           0.017284 (Hartree/Particle)
 Thermal correction to Energy=                    0.019644
 Thermal correction to Enthalpy=                  0.020588
 Thermal correction to Gibbs Free Energy=        -0.002747
 Sum of electronic and zero-point Energies=           -100.904667
 Sum of electronic and thermal Energies=              -100.902306
 Sum of electronic and thermal Enthalpies=            -100.901362
 Sum of electronic and thermal Free Energies=         -100.924697

                     E (Thermal)             CV                S
                      KCal/Mol        Cal/Mol-Kelvin    Cal/Mol-Kelvin
 Total                   12.327              4.968             49.113
 Electronic               0.000              0.000              1.377
 Translational            0.889              2.981             35.068
 Rotational               0.592              1.987             12.668
 Vibrational             10.846              0.000              0.000

 Normal termination of Gaussian 16 at Fri Aug 22 15:49:42 2025.
