 Gaussian 16, Revision C.01,
 Gaussian 16:  ES64L-G16RevC.01  3-Jul-2019

 -----------------------------------------
 # sp b3lyp/6-311g** Force nosymm scf=(qc)
 -----------------------------------------

 -------------------
 Title Card Required
 -------------------
 Symbolic Z-matrix:
 Charge =  0 Multiplicity = 2

                          Input orientation:
 ---------------------------------------------------------------------
 Center     Atomic      Atomic             Coordinates (Angstroms)
 Number     Number       Type             X           Y           Z
 ---------------------------------------------------------------------
      1          1           0        0.000000    0.000000    0.000000
      2          1           0       -3.150000    0.000000    0.000000
      3          9           0        2.350000    0.000000    0.000000
 ---------------------------------------------------------------------

 SCF Done:  E(UB3LYP) =  -100.771762553     a.u. after   16 cycles

 Alpha  occ. eigenvalues --  -24.70807  -1.17071  -0.49892  -0.41929  -0.41929
 Alpha  occ. eigenvalues --   -0.33266
 Alpha virt. eigenvalues --   -0.11420   0.23589   0.34249   0.89169   0.94078
 Alpha virt. eigenvalues --    0.94078   1.06420   1.24264   1.24264   1.24825
 Alpha virt. eigenvalues --    1.39031   1.39031   1.47122   2.14739   2.33992

  Beta  occ. eigenvalues --  -24.68058  -1.09276  -0.39195  -0.39195  -0.36013
  Beta virt. eigenvalues --   -0.22717  -0.07567   0.24201   0.37191   0.94045
  Beta virt. eigenvalues --    0.95345   0.95345   1.08538   1.21732   1.21732
  Beta virt. eigenvalues --    1.34887   1.44959   1.45006   1.45006   2.12847

 Mulliken charges and spin densities:
               1          2
     1  H    0.111822  -0.862198
     2  H    0.002609   0.994826
     3  F   -0.114430   0.867372
 Sum of Mulliken charges =  -0.00000   1.00000

 Dipole moment (field-independent basis, Debye):
    X=             -1.3984    Y=              0.0000    Z=             -0.0000  Tot=              1.3984
 Quadrupole moment (field-independent basis, Debye-Ang):
   XX=             -9.4654   YY=             -7.5590   ZZ=             -7.5590
   XY=              0.0000   XZ=             -0.0000   YZ=             -0.0000

  Exact polarizability:      31.685       0.000       2.029      -0.000       0.000       2.029
 Approx polarizability:      40.402       0.000       1.922      -0.000       0.000       1.922

 ******    2 imaginary frequencies (negative Signs) ******

                      1                      2                      3
                      A                      A                      A
 Frequencies --   -742.1080              -182.0700               299.5122
 Red. masses --      1.0515                 1.0601                 1.0219
 Frc consts  --      0.3412                 0.0207                 0.0540
 IR Inten    --     90.8802                 1.3162                11.5941

                      4
                      A
 Frequencies --    299.5122
 Red. masses --      1.0219
 Frc consts  --      0.0540
 IR Inten    --     11.5941

 - Thermochemistry -
 -------------------
 Temperature   298.150 Kelvin.  Pressure   1.00000 Atm.
 Atom     1 has atomic number  1 and mass   1.00783

 Molecular mass:    21.01405 amu.
 Principal axes and moments of inertia in atomic units:
                           1         2         3
     Eigenvalues --     0.00000 118.10906 118.10906
           X            1.00000  -0.00000   0.00000
           Y            0.00000   1.00000   0.00000
           Z            0.00000   0.00000   1.00000
 This molecule is a prolate symmetric top.
 Rotational symmetry number  1.
 Rotational temperature (Kelvin)      0.73334
 Rotational constant (GHZ):          15.280294
    2 imaginary frequencies ignored.
 Zero-point vibrational energy       3583.0 (Joules/Mol)
                                    0.85635 (Kcal/Mol)
 Warning -- explicit consideration of   2 degrees of freedom as
           vibrations may cause significant error
 Vibrational temperatures:    430.93   430.93
          (Kelvin)

 Zero-point correction=                           0.001365 (Hartree/Particle)
 Thermal correction to Energy=                    0.004567
 Thermal correction to Enthalpy=                  0.005511
 Thermal correction to Gibbs Free Energy=        -0.019771
 Sum of electronic and zero-point Energies=           -100.770398
 Sum of electronic and thermal Energies=              -100.767196
 Sum of electronic and thermal Enthalpies=            -100.766252
 Sum of electronic and thermal Free Energies=         -100.791534

                     E (Thermal)             CV                S
                      KCal/Mol        Cal/Mol-Kelvin    Cal/Mol-Kelvin
 Total                    2.866              8.317             53.211
 Electronic               0.000              0.000              1.377
 Translational            0.889              2.981             35.068
 Rotational               0.592              1.987             13.926
 Vibrational              1.384              3.349              2.839
 Vibration     1          0.692              1.675              1.420
 Vibration     2          0.692              1.675              1.420

 Normal termination of Gaussian 16 at Fri Aug 22 17:27:26 2025.
