 Gaussian 16, Revision C.01,
 Gaussian 16:  ES64L-G16RevC.01  3-Jul-2019

 -----------------------------------------
 # sp b3lyp/6-311g** Force nosymm scf=(qc)
 -----------------------------------------

 -------------------
 Title Card Required
 -------------------
 Symbolic Z-matrix:
 Charge =  0 Multiplicity = 2

                          Input orientation:
 ---------------------------------------------------------------------
 Center     Atomic      Atomic             Coordinates (Angstroms)
 Number     Number       Type             X           Y           Z
 ---------------------------------------------------------------------
      1          1           0        0.000000    0.000000    0.000000
      2          1           0       -2.750000    0.000000    0.000000
      3          9           0        1.850000    0.000000    0.000000
 ---------------------------------------------------------------------

 SCF Done:  E(UB3LYP) =  -100.790335694     a.u. after   12 cycles

 Alpha  occ. eigenvalues --  -24.63649  -1.08044  -0.39473  -0.35380  -0.35380
 Alpha  occ. eigenvalues --   -0.35322
 Alpha virt. eigenvalues --   -0.20820   0.21128   0.26797   0.92577   0.96392
 Alpha virt. eigenvalues --    0.96392   1.08695   1.22003   1.22003   1.23302
 Alpha virt. eigenvalues --    1.25322   1.25322   1.63408   2.12937   2.15536

  Beta  occ. eigenvalues --  -24.63691  -1.08162  -0.39263  -0.35422  -0.35422
  Beta virt. eigenvalues --   -0.21085  -0.09034   0.24395   0.35740   0.92854
  Beta virt. eigenvalues --    0.96426   0.96426   1.08814   1.25920   1.25920
  Beta virt. eigenvalues --    1.42787   1.42787   1.42937   1.64006   2.16350

 Mulliken charges and spin densities:
               1          2
     1  H    0.293826   0.035193
     2  H    0.020491   0.978522
     3  F   -0.314317  -0.013715
 Sum of Mulliken charges =   0.00000   1.00000

 Dipole moment (field-independent basis, Debye):
    X=             -3.1690    Y=              0.0000    Z=              0.0000  Tot=              3.1690
 Quadrupole moment (field-independent basis, Debye-Ang):
   XX=            -10.6420   YY=             -7.4843   ZZ=             -7.4843
   XY=              0.0000   XZ=              0.0000   YZ=              0.0000

  Exact polarizability:      34.525       0.000       2.052      -0.000       0.000       2.052
 Approx polarizability:      77.361       0.000       1.962      -0.000      -0.000       1.962

 ******    2 imaginary frequencies (negative Signs) ******

                      1                      2                      3
                      A                      A                      A
 Frequencies --  -1195.7695              -232.3019               755.8804
 Red. masses --      1.0513                 1.0602                 1.0234
 Frc consts  --      0.8857                 0.0337                 0.3445
 IR Inten    --    149.7134                 9.0730                76.8023

                      4
                      A
 Frequencies --    755.8804
 Red. masses --      1.0234
 Frc consts  --      0.3445
 IR Inten    --     76.8023

 - Thermochemistry -
 -------------------
 Temperature   298.150 Kelvin.  Pressure   1.00000 Atm.
 Atom     1 has atomic number  1 and mass   1.00783

 Molecular mass:    21.01405 amu.
 Principal axes and moments of inertia in atomic units:
                           1         2         3
     Eigenvalues --     0.00000  81.29175  81.29175
           X            1.00000  -0.00000   0.00000
           Y            0.00000   1.00000   0.00000
           Z            0.00000   0.00000   1.00000
 This molecule is a prolate symmetric top.
 Rotational symmetry number  1.
 Rotational temperature (Kelvin)      1.06547
 Rotational constant (GHZ):          22.200792
    2 imaginary frequencies ignored.
 Zero-point vibrational energy       9042.3 (Joules/Mol)
                                    2.16117 (Kcal/Mol)
 Vibrational temperatures:   1087.54  1087.54
          (Kelvin)

 Zero-point correction=                           0.003444 (Hartree/Particle)
 Thermal correction to Energy=                    0.005989
 Thermal correction to Enthalpy=                  0.006933
 Thermal correction to Gibbs Free Energy=        -0.016881
 Sum of electronic and zero-point Energies=           -100.786892
 Sum of electronic and thermal Energies=              -100.784347
 Sum of electronic and thermal Enthalpies=            -100.783403
 Sum of electronic and thermal Free Energies=         -100.807217

                     E (Thermal)             CV                S
                      KCal/Mol        Cal/Mol-Kelvin    Cal/Mol-Kelvin
 Total                    3.758              6.420             50.122
 Electronic               0.000              0.000              1.377
 Translational            0.889              2.981             35.068
 Rotational               0.592              1.987             13.183
 Vibrational              2.277              1.452              0.493

 Normal termination of Gaussian 16 at Fri Aug 22 16:47:27 2025.
