 Gaussian 16, Revision C.01,
 Gaussian 16:  ES64L-G16RevC.01  3-Jul-2019

 -----------------------------------------
 # sp b3lyp/6-311g** Force nosymm scf=(qc)
 -----------------------------------------

 -------------------
 Title Card Required
 -------------------
 Symbolic Z-matrix:
 Charge =  0 Multiplicity = 2

                          Input orientation:
 ---------------------------------------------------------------------
 Center     Atomic      Atomic             Coordinates (Angstroms)
 Number     Number       Type             X           Y           Z
 ---------------------------------------------------------------------
      1          1           0        0.000000    0.000000    0.000000
      2          1           0       -2.400000    0.000000    0.000000
      3          9           0        2.650000    0.000000    0.000000
 ---------------------------------------------------------------------

 SCF Done:  E(UB3LYP) =  -100.769629019     a.u. after   19 cycles

 Alpha  occ. eigenvalues --  -24.72607  -1.18762  -0.51714  -0.43428  -0.43428
 Alpha  occ. eigenvalues --   -0.33693
 Alpha virt. eigenvalues --   -0.11694   0.25080   0.33082   0.90318   0.93153
 Alpha virt. eigenvalues --    0.93153   1.06068   1.24007   1.24007   1.26554
 Alpha virt. eigenvalues --    1.37970   1.37970   1.41735   2.14423   2.34337

  Beta  occ. eigenvalues --  -24.69691  -1.10440  -0.40517  -0.40517  -0.34758
  Beta virt. eigenvalues --   -0.23928  -0.09894   0.25940   0.34291   0.94567
  Beta virt. eigenvalues --    0.94567   0.98213   1.09508   1.22824   1.22824
  Beta virt. eigenvalues --    1.27023   1.40890   1.40890   1.43426   2.14851

 Mulliken charges and spin densities:
               1          2
     1  H    0.057169  -0.883069
     2  H    0.011535   0.960782
     3  F   -0.068704   0.922287
 Sum of Mulliken charges =  -0.00000   1.00000

 Dipole moment (field-independent basis, Debye):
    X=             -1.0624    Y=              0.0000    Z=             -0.0000  Tot=              1.0624
 Quadrupole moment (field-independent basis, Debye-Ang):
   XX=             -8.4783   YY=             -7.6362   ZZ=             -7.6362
   XY=             -0.0000   XZ=             -0.0000   YZ=              0.0000

  Exact polarizability:      47.495      -0.000       2.011      -0.000      -0.000       2.011
 Approx polarizability:      47.918      -0.000       1.918      -0.000       0.000       1.918

 ******    2 imaginary frequencies (negative Signs) ******

                      1                      2                      3
                      A                      A                      A
 Frequencies --   -849.1353              -323.1394               329.1688
 Red. masses --      1.0129                 1.1025                 1.0168
 Frc consts  --      0.4303                 0.0678                 0.0649
 IR Inten    --     39.1656                30.6570                 2.5137

                      4
                      A
 Frequencies --    329.1688
 Red. masses --      1.0168
 Frc consts  --      0.0649
 IR Inten    --      2.5137

 - Thermochemistry -
 -------------------
 Temperature   298.150 Kelvin.  Pressure   1.00000 Atm.
 Atom     1 has atomic number  1 and mass   1.00783

 Molecular mass:    21.01405 amu.
 Principal axes and moments of inertia in atomic units:
                           1         2         3
     Eigenvalues --     0.00000 106.82389 106.82389
           X            1.00000  -0.00000   0.00000
           Y            0.00000   1.00000   0.00000
           Z            0.00000   0.00000   1.00000
 This molecule is a prolate symmetric top.
 Rotational symmetry number  1.
 Rotational temperature (Kelvin)      0.81081
 Rotational constant (GHZ):          16.894547
    2 imaginary frequencies ignored.
 Zero-point vibrational energy       3937.7 (Joules/Mol)
                                    0.94114 (Kcal/Mol)
 Warning -- explicit consideration of   2 degrees of freedom as
           vibrations may cause significant error
 Vibrational temperatures:    473.60   473.60
          (Kelvin)

 Zero-point correction=                           0.001500 (Hartree/Particle)
 Thermal correction to Energy=                    0.004630
 Thermal correction to Enthalpy=                  0.005574
 Thermal correction to Gibbs Free Energy=        -0.019465
 Sum of electronic and zero-point Energies=           -100.768129
 Sum of electronic and thermal Energies=              -100.764999
 Sum of electronic and thermal Enthalpies=            -100.764055
 Sum of electronic and thermal Free Energies=         -100.789094

                     E (Thermal)             CV                S
                      KCal/Mol        Cal/Mol-Kelvin    Cal/Mol-Kelvin
 Total                    2.905              8.202             52.700
 Electronic               0.000              0.000              1.377
 Translational            0.889              2.981             35.068
 Rotational               0.592              1.987             13.726
 Vibrational              1.424              3.234              2.528
 Vibration     1          0.712              1.617              1.264
 Vibration     2          0.712              1.617              1.264

 Normal termination of Gaussian 16 at Fri Aug 22 18:14:44 2025.
