 Gaussian 16, Revision C.01,
 Gaussian 16:  ES64L-G16RevC.01  3-Jul-2019

 -----------------------------------------
 # sp b3lyp/6-311g** Force nosymm scf=(qc)
 -----------------------------------------

 -------------------
 Title Card Required
 -------------------
 Symbolic Z-matrix:
 Charge =  0 Multiplicity = 2

                          Input orientation:
 ---------------------------------------------------------------------
 Center     Atomic      Atomic             Coordinates (Angstroms)
 Number     Number       Type             X           Y           Z
 ---------------------------------------------------------------------
      1          1           0        0.000000    0.000000    0.000000
      2          1           0       -0.600000    0.000000    0.000000
      3          9           0        0.950000    0.000000    0.000000
 ---------------------------------------------------------------------

 SCF Done:  E(UB3LYP) =  -100.868989605     a.u. after    6 cycles

 Alpha  occ. eigenvalues --  -24.67509  -1.22929  -0.67066  -0.42569  -0.42569
 Alpha  occ. eigenvalues --   -0.33635
 Alpha virt. eigenvalues --    0.14423   0.18137   0.66827   0.86504   0.86504
 Alpha virt. eigenvalues --    0.93740   1.11926   1.11926   1.47093   1.72149
 Alpha virt. eigenvalues --    1.85499   1.85499   1.89409   2.65322   3.78368

  Beta  occ. eigenvalues --  -24.65811  -1.18604  -0.59418  -0.41042  -0.41042
  Beta virt. eigenvalues --   -0.15686   0.16714   0.19061   0.71648   0.88475
  Beta virt. eigenvalues --    0.88475   0.97103   1.15956   1.15956   1.49355
  Beta virt. eigenvalues --    1.79639   1.89698   1.89698   1.91190   2.71608

 Mulliken charges and spin densities:
               1          2
     1  H    0.278707  -0.019629
     2  H   -0.070779   0.612932
     3  F   -0.207928   0.406697
 Sum of Mulliken charges =   0.00000   1.00000

 Dipole moment (field-independent basis, Debye):
    X=             -1.2412    Y=              0.0000    Z=             -0.0000  Tot=              1.2412
 Quadrupole moment (field-independent basis, Debye-Ang):
   XX=             -7.3675   YY=             -6.4222   ZZ=             -6.4222
   XY=              0.0000   XZ=             -0.0000   YZ=             -0.0000

  Exact polarizability:      11.542       0.000       2.495       0.000       0.000       2.495
 Approx polarizability:      13.289      -0.000       2.570       0.000       0.000       2.570

 ******    2 imaginary frequencies (negative Signs) ******

                      1                      2                      3
                      A                      A                      A
 Frequencies --  -3595.0563             -3595.0563              2675.9223
 Red. masses --      1.0133                 1.0133                 1.1084
 Frc consts  --      7.7164                 7.7164                 4.6762
 IR Inten    --     31.2653                31.2653                52.3461

                      4
                      A
 Frequencies --   6783.1202
 Red. masses --      1.0079
 Frc consts  --     27.3235
 IR Inten    --     60.8921

 - Thermochemistry -
 -------------------
 Temperature   298.150 Kelvin.  Pressure   1.00000 Atm.
 Atom     1 has atomic number  1 and mass   1.00783

 Molecular mass:    21.01405 amu.
 Principal axes and moments of inertia in atomic units:
                           1         2         3
     Eigenvalues --     0.00000  10.81593  10.81593
           X            1.00000  -0.00000   0.00000
           Y            0.00000   1.00000   0.00000
           Z            0.00000   0.00000   1.00000
 This molecule is a prolate symmetric top.
 Rotational symmetry number  1.
 Rotational temperature (Kelvin)      8.00800
 Rotational constant (GHZ):         166.859549
    2 imaginary frequencies ignored.
 Zero-point vibrational energy      56577.6 (Joules/Mol)
                                   13.52238 (Kcal/Mol)
 Vibrational temperatures:   3850.06  9759.40
          (Kelvin)

 Zero-point correction=                           0.021549 (Hartree/Particle)
 Thermal correction to Energy=                    0.023910
 Thermal correction to Enthalpy=                  0.024854
 Thermal correction to Gibbs Free Energy=         0.003178
 Sum of electronic and zero-point Energies=           -100.847440
 Sum of electronic and thermal Energies=              -100.845080
 Sum of electronic and thermal Enthalpies=            -100.844136
 Sum of electronic and thermal Free Energies=         -100.865812

                     E (Thermal)             CV                S
                      KCal/Mol        Cal/Mol-Kelvin    Cal/Mol-Kelvin
 Total                   15.004              4.969             45.621
 Electronic               0.000              0.000              1.377
 Translational            0.889              2.981             35.068
 Rotational               0.592              1.987              9.175
 Vibrational             13.522              0.001              0.000

 Normal termination of Gaussian 16 at Fri Aug 22 15:57:11 2025.
