 Gaussian 16, Revision C.01,
 Gaussian 16:  ES64L-G16RevC.01  3-Jul-2019

 -----------------------------------------
 # sp b3lyp/6-311g** Force nosymm scf=(qc)
 -----------------------------------------

 -------------------
 Title Card Required
 -------------------
 Symbolic Z-matrix:
 Charge =  0 Multiplicity = 2

                          Input orientation:
 ---------------------------------------------------------------------
 Center     Atomic      Atomic             Coordinates (Angstroms)
 Number     Number       Type             X           Y           Z
 ---------------------------------------------------------------------
      1          1           0        0.000000    0.000000    0.000000
      2          1           0       -3.250000    0.000000    0.000000
      3          9           0        1.600000    0.000000    0.000000
 ---------------------------------------------------------------------

 SCF Done:  E(UB3LYP) =  -100.834202048     a.u. after   13 cycles

 Alpha  occ. eigenvalues --  -24.64865  -1.10512  -0.43356  -0.36788  -0.36788
 Alpha  occ. eigenvalues --   -0.34264
 Alpha virt. eigenvalues --   -0.15261   0.20977   0.28402   0.94186   0.94186
 Alpha virt. eigenvalues --    1.00471   1.07098   1.23257   1.23257   1.23477
 Alpha virt. eigenvalues --    1.32100   1.32100   1.74361   2.13665   2.20841

  Beta  occ. eigenvalues --  -24.64031  -1.08272  -0.41393  -0.35987  -0.35987
  Beta virt. eigenvalues --   -0.17189  -0.07430   0.22520   0.37547   0.93879
  Beta virt. eigenvalues --    0.93879   1.01323   1.07369   1.27675   1.27675
  Beta virt. eigenvalues --    1.44858   1.45312   1.45312   1.72311   2.14324

 Mulliken charges and spin densities:
               1          2
     1  H    0.326561  -0.259327
     2  H    0.003896   0.995589
     3  F   -0.330457   0.263738
 Sum of Mulliken charges =  -0.00000   1.00000

 Dipole moment (field-independent basis, Debye):
    X=             -2.6441    Y=              0.0000    Z=              0.0000  Tot=              2.6441
 Quadrupole moment (field-independent basis, Debye-Ang):
   XX=            -10.0380   YY=             -7.3726   ZZ=             -7.3726
   XY=              0.0000   XZ=              0.0000   YZ=              0.0000

  Exact polarizability:      20.882       0.000       2.149      -0.000       0.000       2.149
 Approx polarizability:      35.205       0.000       2.062       0.000      -0.000       2.062

 ******    2 imaginary frequencies (negative Signs) ******

                      1                      2                      3
                      A                      A                      A
 Frequencies --  -1894.5846              -133.4804               904.3143
 Red. masses --      1.0571                 1.0544                 1.0283
 Frc consts  --      2.2356                 0.0111                 0.4955
 IR Inten    --     54.2646                 0.8080                99.3936

                      4
                      A
 Frequencies --    904.3143
 Red. masses --      1.0283
 Frc consts  --      0.4955
 IR Inten    --     99.3936

 - Thermochemistry -
 -------------------
 Temperature   298.150 Kelvin.  Pressure   1.00000 Atm.
 Atom     1 has atomic number  1 and mass   1.00783

 Molecular mass:    21.01405 amu.
 Principal axes and moments of inertia in atomic units:
                           1         2         3
     Eigenvalues --     0.00000  86.69026  86.69026
           X            1.00000  -0.00000   0.00000
           Y            0.00000   1.00000   0.00000
           Z            0.00000   0.00000   1.00000
 This molecule is a prolate symmetric top.
 Rotational symmetry number  1.
 Rotational temperature (Kelvin)      0.99912
 Rotational constant (GHZ):          20.818269
    2 imaginary frequencies ignored.
 Zero-point vibrational energy      10818.0 (Joules/Mol)
                                    2.58556 (Kcal/Mol)
 Vibrational temperatures:   1301.11  1301.11
          (Kelvin)

 Zero-point correction=                           0.004120 (Hartree/Particle)
 Thermal correction to Energy=                    0.006587
 Thermal correction to Enthalpy=                  0.007531
 Thermal correction to Gibbs Free Energy=        -0.016240
 Sum of electronic and zero-point Energies=           -100.830082
 Sum of electronic and thermal Energies=              -100.827615
 Sum of electronic and thermal Enthalpies=            -100.826671
 Sum of electronic and thermal Free Energies=         -100.850442

                     E (Thermal)             CV                S
                      KCal/Mol        Cal/Mol-Kelvin    Cal/Mol-Kelvin
 Total                    4.133              5.956             50.031
 Electronic               0.000              0.000              1.377
 Translational            0.889              2.981             35.068
 Rotational               0.592              1.987             13.311
 Vibrational              2.652              0.988              0.275

 Normal termination of Gaussian 16 at Fri Aug 22 16:32:17 2025.
