 Gaussian 16, Revision C.01,
 Gaussian 16:  ES64L-G16RevC.01  3-Jul-2019

 -----------------------------------------
 # sp b3lyp/6-311g** Force nosymm scf=(qc)
 -----------------------------------------

 -------------------
 Title Card Required
 -------------------
 Symbolic Z-matrix:
 Charge =  0 Multiplicity = 2

                          Input orientation:
 ---------------------------------------------------------------------
 Center     Atomic      Atomic             Coordinates (Angstroms)
 Number     Number       Type             X           Y           Z
 ---------------------------------------------------------------------
      1          1           0        0.000000    0.000000    0.000000
      2          1           0       -3.700000    0.000000    0.000000
      3          9           0        3.650000    0.000000    0.000000
 ---------------------------------------------------------------------

 SCF Done:  E(UB3LYP) =  -100.758760580     a.u. after   34 cycles

 Alpha  occ. eigenvalues --  -24.75598  -1.21545  -0.54721  -0.45944  -0.45944
 Alpha  occ. eigenvalues --   -0.32284
 Alpha virt. eigenvalues --   -0.06521   0.24202   0.37416   0.87176   0.91349
 Alpha virt. eigenvalues --    0.91349   1.01489   1.25215   1.25215   1.25286
 Alpha virt. eigenvalues --    1.45860   1.45860   1.45883   2.14805   2.41798

  Beta  occ. eigenvalues --  -24.72470  -1.12555  -0.42809  -0.42809  -0.32659
  Beta virt. eigenvalues --   -0.25590  -0.06160   0.23976   0.38125   0.92843
  Beta virt. eigenvalues --    0.92843   0.96405   1.05547   1.24793   1.24793
  Beta virt. eigenvalues --    1.24846   1.46276   1.46462   1.46462   2.14902

 Mulliken charges and spin densities:
               1          2
     1  H    0.007488  -0.990364
     2  H    0.000078   0.998700
     3  F   -0.007566   0.991665
 Sum of Mulliken charges =  -0.00000   1.00000

 Dipole moment (field-independent basis, Debye):
    X=             -0.1436    Y=              0.0000    Z=             -0.0000  Tot=              0.1436
 Quadrupole moment (field-independent basis, Debye-Ang):
   XX=             -7.2142   YY=             -7.6204   ZZ=             -7.6204
   XY=              0.0000   XZ=             -0.0000   YZ=             -0.0000

  Exact polarizability:      19.106      -0.000       1.987      -0.000      -0.000       1.987
 Approx polarizability:      14.424       0.000       1.935      -0.000       0.000       1.935

 ******    2 imaginary frequencies (negative Signs) ******

                      1                      2                      3
                      A                      A                      A
 Frequencies --   -200.5284               -83.6714                91.1304
 Red. masses --      1.0291                 1.0839                 1.0181
 Frc consts  --      0.0244                 0.0045                 0.0050
 IR Inten    --      5.9348                 0.6247                 0.1003

                      4
                      A
 Frequencies --     91.1319
 Red. masses --      1.0181
 Frc consts  --      0.0050
 IR Inten    --      0.1003

 - Thermochemistry -
 -------------------
 Temperature   298.150 Kelvin.  Pressure   1.00000 Atm.
 Atom     1 has atomic number  1 and mass   1.00783

 Molecular mass:    21.01405 amu.
 Principal axes and moments of inertia in atomic units:
                           1         2         3
     Eigenvalues --     0.00000 221.48979 221.48979
           X            1.00000  -0.00000   0.00000
           Y            0.00000   1.00000   0.00000
           Z            0.00000   0.00000   1.00000
 This molecule is a prolate symmetric top.
 Rotational symmetry number  1.
 Rotational temperature (Kelvin)      0.39105
 Rotational constant (GHZ):           8.148191
    2 imaginary frequencies ignored.
 Zero-point vibrational energy       1090.2 (Joules/Mol)
                                    0.26056 (Kcal/Mol)
 Warning -- explicit consideration of   2 degrees of freedom as
           vibrations may cause significant error
 Vibrational temperatures:    131.12   131.12
          (Kelvin)

 Zero-point correction=                           0.000415 (Hartree/Particle)
 Thermal correction to Energy=                    0.004279
 Thermal correction to Enthalpy=                  0.005223
 Thermal correction to Gibbs Free Energy=        -0.022758
 Sum of electronic and zero-point Energies=           -100.758345
 Sum of electronic and thermal Energies=              -100.754481
 Sum of electronic and thermal Enthalpies=            -100.753537
 Sum of electronic and thermal Free Energies=         -100.781519

                     E (Thermal)             CV                S
                      KCal/Mol        Cal/Mol-Kelvin    Cal/Mol-Kelvin
 Total                    2.685              8.879             58.892
 Electronic               0.000              0.000              1.377
 Translational            0.889              2.981             35.068
 Rotational               0.592              1.987             15.175
 Vibrational              1.204              3.911              7.271
 Vibration     1          0.602              1.955              3.636
 Vibration     2          0.602              1.955              3.636

 Normal termination of Gaussian 16 at Fri Aug 22 23:38:25 2025.
