 Gaussian 16, Revision C.01,
 Gaussian 16:  ES64L-G16RevC.01  3-Jul-2019

 -----------------------------------------
 # sp b3lyp/6-311g** Force nosymm scf=(qc)
 -----------------------------------------

 -------------------
 Title Card Required
 -------------------
 Symbolic Z-matrix:
 Charge =  0 Multiplicity = 2

                          Input orientation:
 ---------------------------------------------------------------------
 Center     Atomic      Atomic             Coordinates (Angstroms)
 Number     Number       Type             X           Y           Z
 ---------------------------------------------------------------------
      1          1           0        0.000000    0.000000    0.000000
      2          1           0       -1.850000    0.000000    0.000000
      3          9           0        1.750000    0.000000    0.000000
 ---------------------------------------------------------------------

 SCF Done:  E(UB3LYP) =  -100.826780707     a.u. after   14 cycles

 Alpha  occ. eigenvalues --  -24.66060  -1.12371  -0.45500  -0.37914  -0.37914
 Alpha  occ. eigenvalues --   -0.37702
 Alpha virt. eigenvalues --   -0.12547   0.22968   0.29396   0.90474   0.94833
 Alpha virt. eigenvalues --    0.94833   1.04228   1.19818   1.19818   1.32086
 Alpha virt. eigenvalues --    1.34355   1.34355   1.71963   2.12529   2.31935

  Beta  occ. eigenvalues --  -24.64165  -1.07167  -0.38992  -0.36069  -0.36069
  Beta virt. eigenvalues --   -0.20843  -0.10088   0.25562   0.30658   0.93135
  Beta virt. eigenvalues --    0.94943   0.94943   1.07824   1.25081   1.25081
  Beta virt. eigenvalues --    1.35464   1.35464   1.41152   1.71654   2.13971

 Mulliken charges and spin densities:
               1          2
     1  H    0.202279  -0.451109
     2  H    0.058390   0.856998
     3  F   -0.260669   0.594111
 Sum of Mulliken charges =   0.00000   1.00000

 Dipole moment (field-independent basis, Debye):
    X=             -2.7541    Y=             -0.0000    Z=              0.0000  Tot=              2.7541
 Quadrupole moment (field-independent basis, Debye-Ang):
   XX=             -8.6391   YY=             -7.4450   ZZ=             -7.4450
   XY=             -0.0000   XZ=              0.0000   YZ=             -0.0000

  Exact polarizability:      44.026      -0.000       2.139       0.000      -0.000       2.139
 Approx polarizability:      58.119      -0.000       2.053       0.000       0.000       2.053

 ******    2 imaginary frequencies (negative Signs) ******

                      1                      2                      3
                      A                      A                      A
 Frequencies --  -2020.0848              -613.9902               824.2760
 Red. masses --      1.0257                 1.0876                 1.0186
 Frc consts  --      2.4662                 0.2416                 0.4078
 IR Inten    --    178.9727                10.5361                24.0815

                      4
                      A
 Frequencies --    824.2760
 Red. masses --      1.0186
 Frc consts  --      0.4078
 IR Inten    --     24.0815

 - Thermochemistry -
 -------------------
 Temperature   298.150 Kelvin.  Pressure   1.00000 Atm.
 Atom     1 has atomic number  1 and mass   1.00783

 Molecular mass:    21.01405 amu.
 Principal axes and moments of inertia in atomic units:
                           1         2         3
     Eigenvalues --     0.00000  52.72467  52.72467
           X            1.00000  -0.00000   0.00000
           Y            0.00000   1.00000   0.00000
           Z            0.00000   0.00000   1.00000
 This molecule is a prolate symmetric top.
 Rotational symmetry number  1.
 Rotational temperature (Kelvin)      1.64276
 Rotational constant (GHZ):          34.229538
    2 imaginary frequencies ignored.
 Zero-point vibrational energy       9860.5 (Joules/Mol)
                                    2.35672 (Kcal/Mol)
 Vibrational temperatures:   1185.95  1185.95
          (Kelvin)

 Zero-point correction=                           0.003756 (Hartree/Particle)
 Thermal correction to Energy=                    0.006260
 Thermal correction to Enthalpy=                  0.007204
 Thermal correction to Gibbs Free Energy=        -0.016147
 Sum of electronic and zero-point Energies=           -100.823025
 Sum of electronic and thermal Energies=              -100.820521
 Sum of electronic and thermal Enthalpies=            -100.819577
 Sum of electronic and thermal Free Energies=         -100.842928

                     E (Thermal)             CV                S
                      KCal/Mol        Cal/Mol-Kelvin    Cal/Mol-Kelvin
 Total                    3.928              6.191             49.145
 Electronic               0.000              0.000              1.377
 Translational            0.889              2.981             35.068
 Rotational               0.592              1.987             12.323
 Vibrational              2.447              1.223              0.377

 Normal termination of Gaussian 16 at Fri Aug 22 16:40:20 2025.
