 Gaussian 16, Revision C.01,
 Gaussian 16:  ES64L-G16RevC.01  3-Jul-2019

 -----------------------------------------
 # sp b3lyp/6-311g** Force nosymm scf=(qc)
 -----------------------------------------

 -------------------
 Title Card Required
 -------------------
 Symbolic Z-matrix:
 Charge =  0 Multiplicity = 2

                          Input orientation:
 ---------------------------------------------------------------------
 Center     Atomic      Atomic             Coordinates (Angstroms)
 Number     Number       Type             X           Y           Z
 ---------------------------------------------------------------------
      1          1           0        0.000000    0.000000    0.000000
      2          1           0       -1.800000    0.000000    0.000000
      3          9           0        0.800000    0.000000    0.000000
 ---------------------------------------------------------------------

 SCF Done:  E(UB3LYP) =  -100.949646194     a.u. after    6 cycles

 Alpha  occ. eigenvalues --  -24.63426  -1.22885  -0.56402  -0.40448  -0.40448
 Alpha  occ. eigenvalues --   -0.35984
 Alpha virt. eigenvalues --    0.10031   0.23255   0.43757   0.94345   0.94345
 Alpha virt. eigenvalues --    0.97384   1.18249   1.20698   1.20698   1.40772
 Alpha virt. eigenvalues --    1.40772   1.54549   2.01264   2.18938   2.60079

  Beta  occ. eigenvalues --  -24.63351  -1.22687  -0.55976  -0.40388  -0.40388
  Beta virt. eigenvalues --   -0.12011   0.11753   0.32624   0.45467   0.94371
  Beta virt. eigenvalues --    0.94371   0.97610   1.27375   1.36272   1.36272
  Beta virt. eigenvalues --    1.44313   1.44313   1.61598   2.07777   2.33747

 Mulliken charges and spin densities:
               1          2
     1  H    0.257728   0.010573
     2  H    0.015141   0.973382
     3  F   -0.272868   0.016046
 Sum of Mulliken charges =   0.00000   1.00000

 Dipole moment (field-independent basis, Debye):
    X=             -1.8695    Y=             -0.0000    Z=             -0.0000  Tot=              1.8695
 Quadrupole moment (field-independent basis, Debye-Ang):
   XX=             -7.2544   YY=             -6.7110   ZZ=             -6.7110
   XY=             -0.0000   XZ=             -0.0000   YZ=             -0.0000

  Exact polarizability:       8.049      -0.000       2.515       0.000       0.000       2.515
 Approx polarizability:       8.105      -0.000       2.511      -0.000       0.000       2.511

 ******    2 imaginary frequencies (negative Signs) ******

                      1                      2                      3
                      A                      A                      A
 Frequencies --  -1946.4922             -1946.4922               420.4026
 Red. masses --      1.0300                 1.0300                 1.0532
 Frc consts  --      2.2992                 2.2992                 0.1097
 IR Inten    --    151.5921               151.5921                 0.1348

                      4
                      A
 Frequencies --   6326.9806
 Red. masses --      1.0584
 Frc consts  --     24.9618
 IR Inten    --    173.6333

 - Thermochemistry -
 -------------------
 Temperature   298.150 Kelvin.  Pressure   1.00000 Atm.
 Atom     1 has atomic number  1 and mass   1.00783

 Molecular mass:    21.01405 amu.
 Principal axes and moments of inertia in atomic units:
                           1         2         3
     Eigenvalues --     0.00000  24.63733  24.63733
           X            1.00000  -0.00000   0.00000
           Y            0.00000   1.00000   0.00000
           Z            0.00000   0.00000   1.00000
 This molecule is a prolate symmetric top.
 Rotational symmetry number  1.
 Rotational temperature (Kelvin)      3.51556
 Rotational constant (GHZ):          73.252313
    2 imaginary frequencies ignored.
 Zero-point vibrational energy      40358.3 (Joules/Mol)
                                    9.64587 (Kcal/Mol)
 Warning -- explicit consideration of   1 degrees of freedom as
           vibrations may cause significant error
 Vibrational temperatures:    604.87  9103.11
          (Kelvin)

 Zero-point correction=                           0.015372 (Hartree/Particle)
 Thermal correction to Energy=                    0.018022
 Thermal correction to Enthalpy=                  0.018966
 Thermal correction to Gibbs Free Energy=        -0.003910
 Sum of electronic and zero-point Energies=           -100.934275
 Sum of electronic and thermal Energies=              -100.931624
 Sum of electronic and thermal Enthalpies=            -100.930680
 Sum of electronic and thermal Free Energies=         -100.953556

                     E (Thermal)             CV                S
                      KCal/Mol        Cal/Mol-Kelvin    Cal/Mol-Kelvin
 Total                   11.309              6.394             48.147
 Electronic               0.000              0.000              1.377
 Translational            0.889              2.981             35.068
 Rotational               0.592              1.987             10.811
 Vibrational              9.828              1.426              0.891
 Vibration     1          0.783              1.426              0.891

 Normal termination of Gaussian 16 at Fri Aug 22 15:50:57 2025.
