 Gaussian 16, Revision C.01,
 Gaussian 16:  ES64L-G16RevC.01  3-Jul-2019

 -----------------------------------------
 # sp b3lyp/6-311g** Force nosymm scf=(qc)
 -----------------------------------------

 -------------------
 Title Card Required
 -------------------
 Symbolic Z-matrix:
 Charge =  0 Multiplicity = 2

                          Input orientation:
 ---------------------------------------------------------------------
 Center     Atomic      Atomic             Coordinates (Angstroms)
 Number     Number       Type             X           Y           Z
 ---------------------------------------------------------------------
      1          1           0        0.000000    0.000000    0.000000
      2          1           0       -3.600000    0.000000    0.000000
      3          9           0        3.050000    0.000000    0.000000
 ---------------------------------------------------------------------

 SCF Done:  E(UB3LYP) =  -100.760679037     a.u. after   22 cycles

 Alpha  occ. eigenvalues --  -24.74254  -1.20302  -0.53374  -0.44816  -0.44816
 Alpha  occ. eigenvalues --   -0.32495
 Alpha virt. eigenvalues --   -0.07886   0.23989   0.36240   0.89202   0.92174
 Alpha virt. eigenvalues --    0.92174   1.03616   1.25008   1.25008   1.25117
 Alpha virt. eigenvalues --    1.44288   1.44288   1.44564   2.14715   2.40460

  Beta  occ. eigenvalues --  -24.71215  -1.11590  -0.41774  -0.41774  -0.33611
  Beta virt. eigenvalues --   -0.24870  -0.06400   0.23884   0.37986   0.93639
  Beta virt. eigenvalues --    0.93639   0.97953   1.07381   1.23728   1.23728
  Beta virt. eigenvalues --    1.24052   1.46024   1.46262   1.46262   2.14912

 Mulliken charges and spin densities:
               1          2
     1  H    0.033324  -0.961501
     2  H    0.000320   0.998384
     3  F   -0.033644   0.963117
 Sum of Mulliken charges =  -0.00000   1.00000

 Dipole moment (field-independent basis, Debye):
    X=             -0.5326    Y=             -0.0000    Z=              0.0000  Tot=              0.5326
 Quadrupole moment (field-independent basis, Debye-Ang):
   XX=             -8.2160   YY=             -7.6102   ZZ=             -7.6102
   XY=             -0.0000   XZ=             -0.0000   YZ=             -0.0000

  Exact polarizability:      31.222      -0.000       2.027      -0.000      -0.000       2.027
 Approx polarizability:      31.050      -0.000       1.927      -0.000       0.000       1.927

 ******    2 imaginary frequencies (negative Signs) ******

                      1                      2                      3
                      A                      A                      A
 Frequencies --   -356.2718              -105.7989               123.9640
 Red. masses --      1.0477                 1.0639                 1.0201
 Frc consts  --      0.0784                 0.0070                 0.0092
 IR Inten    --     35.9724                 0.4615                 1.0431

                      4
                      A
 Frequencies --    123.9640
 Red. masses --      1.0201
 Frc consts  --      0.0092
 IR Inten    --      1.0431

 - Thermochemistry -
 -------------------
 Temperature   298.150 Kelvin.  Pressure   1.00000 Atm.
 Atom     1 has atomic number  1 and mass   1.00783

 Molecular mass:    21.01405 amu.
 Principal axes and moments of inertia in atomic units:
                           1         2         3
     Eigenvalues --     0.00000 176.39635 176.39635
           X            1.00000  -0.00000   0.00000
           Y            0.00000   1.00000   0.00000
           Z            0.00000   0.00000   1.00000
 This molecule is a prolate symmetric top.
 Rotational symmetry number  1.
 Rotational temperature (Kelvin)      0.49102
 Rotational constant (GHZ):          10.231171
    2 imaginary frequencies ignored.
 Zero-point vibrational energy       1482.9 (Joules/Mol)
                                    0.35443 (Kcal/Mol)
 Warning -- explicit consideration of   2 degrees of freedom as
           vibrations may cause significant error
 Vibrational temperatures:    178.36   178.36
          (Kelvin)

 Zero-point correction=                           0.000565 (Hartree/Particle)
 Thermal correction to Energy=                    0.004305
 Thermal correction to Enthalpy=                  0.005249
 Thermal correction to Gibbs Free Energy=        -0.021949
 Sum of electronic and zero-point Energies=           -100.760114
 Sum of electronic and thermal Energies=              -100.756374
 Sum of electronic and thermal Enthalpies=            -100.755430
 Sum of electronic and thermal Free Energies=         -100.782628

                     E (Thermal)             CV                S
                      KCal/Mol        Cal/Mol-Kelvin    Cal/Mol-Kelvin
 Total                    2.701              8.826             57.244
 Electronic               0.000              0.000              1.377
 Translational            0.889              2.981             35.068
 Rotational               0.592              1.987             14.723
 Vibrational              1.220              3.858              6.075
 Vibration     1          0.610              1.929              3.038
 Vibration     2          0.610              1.929              3.038

 Normal termination of Gaussian 16 at Fri Aug 22 19:45:26 2025.
