 Gaussian 16, Revision C.01,
 Gaussian 16:  ES64L-G16RevC.01  3-Jul-2019

 -----------------------------------------
 # sp b3lyp/6-311g** Force nosymm scf=(qc)
 -----------------------------------------

 -------------------
 Title Card Required
 -------------------
 Symbolic Z-matrix:
 Charge =  0 Multiplicity = 2

                          Input orientation:
 ---------------------------------------------------------------------
 Center     Atomic      Atomic             Coordinates (Angstroms)
 Number     Number       Type             X           Y           Z
 ---------------------------------------------------------------------
      1          1           0        0.000000    0.000000    0.000000
      2          1           0       -0.900000    0.000000    0.000000
      3          9           0        1.450000    0.000000    0.000000
 ---------------------------------------------------------------------

 SCF Done:  E(UB3LYP) =  -100.935114396     a.u. after    7 cycles

 Alpha  occ. eigenvalues --  -24.69363  -1.16668  -0.54489  -0.41312  -0.41312
 Alpha  occ. eigenvalues --   -0.40986
 Alpha virt. eigenvalues --    0.06284   0.19802   0.37855   0.89196   0.89196
 Alpha virt. eigenvalues --    0.98093   1.07523   1.07523   1.25780   1.66457
 Alpha virt. eigenvalues --    1.70127   1.70127   2.17839   2.35751   2.60350

  Beta  occ. eigenvalues --  -24.67015  -1.10289  -0.45934  -0.39046  -0.39046
  Beta virt. eigenvalues --   -0.23120   0.08318   0.21126   0.40328   0.90288
  Beta virt. eigenvalues --    0.90288   1.03619   1.10521   1.10521   1.29545
  Beta virt. eigenvalues --    1.69967   1.71966   1.71966   2.19511   2.39487

 Mulliken charges and spin densities:
               1          2
     1  H    0.163442  -0.073626
     2  H    0.036400   0.366217
     3  F   -0.199842   0.707409
 Sum of Mulliken charges =  -0.00000   1.00000

 Dipole moment (field-independent basis, Debye):
    X=             -1.5912    Y=              0.0000    Z=             -0.0000  Tot=              1.5912
 Quadrupole moment (field-independent basis, Debye-Ang):
   XX=             -7.2310   YY=             -6.9067   ZZ=             -6.9067
   XY=              0.0000   XZ=             -0.0000   YZ=             -0.0000

  Exact polarizability:      24.375       0.000       2.379      -0.000       0.000       2.379
 Approx polarizability:      33.882      -0.000       2.390      -0.000       0.000       2.390

 ******    1 imaginary frequencies (negative Signs) ******

                      1                      2                      3
                      A                      A                      A
 Frequencies --  -1167.7524              1060.2585              1060.2585
 Red. masses --      1.0879                 1.0132                 1.0132
 Frc consts  --      0.8740                 0.6711                 0.6711
 IR Inten    --    420.0794                 3.7723                 3.7723

                      4
                      A
 Frequencies --   1891.0221
 Red. masses --      1.0255
 Frc consts  --      2.1606
 IR Inten    --    552.8320

 - Thermochemistry -
 -------------------
 Temperature   298.150 Kelvin.  Pressure   1.00000 Atm.
 Atom     1 has atomic number  1 and mass   1.00783

 Molecular mass:    21.01405 amu.
 Principal axes and moments of inertia in atomic units:
                           1         2         3
     Eigenvalues --     0.00000  24.95000  24.95000
           X            1.00000  -0.00000   0.00000
           Y            0.00000   1.00000   0.00000
           Z            0.00000   0.00000   1.00000
 This molecule is a prolate symmetric top.
 Rotational symmetry number  1.
 Rotational temperature (Kelvin)      3.47150
 Rotational constant (GHZ):          72.334328
    1 imaginary frequencies ignored.
 Zero-point vibrational energy      23994.3 (Joules/Mol)
                                    5.73478 (Kcal/Mol)
 Vibrational temperatures:   1525.48  1525.48  2720.76
          (Kelvin)

 Zero-point correction=                           0.009139 (Hartree/Particle)
 Thermal correction to Energy=                    0.011559
 Thermal correction to Enthalpy=                  0.012503
 Thermal correction to Gibbs Free Energy=        -0.010033
 Sum of electronic and zero-point Energies=           -100.925975
 Sum of electronic and thermal Energies=              -100.923556
 Sum of electronic and thermal Enthalpies=            -100.922612
 Sum of electronic and thermal Free Energies=         -100.945147

                     E (Thermal)             CV                S
                      KCal/Mol        Cal/Mol-Kelvin    Cal/Mol-Kelvin
 Total                    7.253              5.618             47.430
 Electronic               0.000              0.000              1.377
 Translational            0.889              2.981             35.068
 Rotational               0.592              1.987             10.836
 Vibrational              5.772              0.650              0.149

 Normal termination of Gaussian 16 at Fri Aug 22 16:21:51 2025.
