 Gaussian 16, Revision C.01,
 Gaussian 16:  ES64L-G16RevC.01  3-Jul-2019

 -----------------------------------------
 # sp b3lyp/6-311g** Force nosymm scf=(qc)
 -----------------------------------------

 -------------------
 Title Card Required
 -------------------
 Symbolic Z-matrix:
 Charge =  0 Multiplicity = 2

                          Input orientation:
 ---------------------------------------------------------------------
 Center     Atomic      Atomic             Coordinates (Angstroms)
 Number     Number       Type             X           Y           Z
 ---------------------------------------------------------------------
      1          1           0        0.000000    0.000000    0.000000
      2          1           0       -3.000000    0.000000    0.000000
      3          9           0        0.850000    0.000000    0.000000
 ---------------------------------------------------------------------

 SCF Done:  E(UB3LYP) =  -100.965597431     a.u. after    6 cycles

 Alpha  occ. eigenvalues --  -24.63835  -1.20884  -0.55000  -0.40115  -0.40115
 Alpha  occ. eigenvalues --   -0.34033
 Alpha virt. eigenvalues --    0.04517   0.25244   0.42437   0.94356   0.94356
 Alpha virt. eigenvalues --    0.97400   1.22465   1.23496   1.23496   1.32670
 Alpha virt. eigenvalues --    1.38379   1.38379   2.03419   2.14702   2.42949

  Beta  occ. eigenvalues --  -24.63831  -1.20874  -0.54988  -0.40112  -0.40112
  Beta virt. eigenvalues --   -0.06793   0.05608   0.38904   0.42587   0.94357
  Beta virt. eigenvalues --    0.94357   0.97388   1.30228   1.38378   1.38378
  Beta virt. eigenvalues --    1.49793   1.49793   1.50584   2.03559   2.42532

 Mulliken charges and spin densities:
               1          2
     1  H    0.282842   0.001470
     2  H    0.002212   0.997014
     3  F   -0.285054   0.001516
 Sum of Mulliken charges =   0.00000   1.00000

 Dipole moment (field-independent basis, Debye):
    X=             -1.8405    Y=              0.0000    Z=             -0.0000  Tot=              1.8405
 Quadrupole moment (field-independent basis, Debye-Ang):
   XX=             -7.6707   YY=             -6.8187   ZZ=             -6.8187
   XY=              0.0000   XZ=             -0.0000   YZ=             -0.0000

  Exact polarizability:       5.793      -0.000       2.446      -0.000       0.000       2.446
 Approx polarizability:       6.419       0.000       2.427      -0.000       0.000       2.427

 ******    3 imaginary frequencies (negative Signs) ******

                      1                      2                      3
                      A                      A                      A
 Frequencies --  -1319.8268             -1319.8268               -52.7872
 Red. masses --      1.0371                 1.0371                 1.0532
 Frc consts  --      1.0644                 1.0644                 0.0017
 IR Inten    --    183.5777               183.5777                 0.1503

                      4
                      A
 Frequencies --   5310.4701
 Red. masses --      1.0583
 Frc consts  --     17.5849
 IR Inten    --    111.1645

 - Thermochemistry -
 -------------------
 Temperature   298.150 Kelvin.  Pressure   1.00000 Atm.
 Atom     1 has atomic number  1 and mass   1.00783

 Molecular mass:    21.01405 amu.
 Principal axes and moments of inertia in atomic units:
                           1         2         3
     Eigenvalues --     0.00000  52.13370  52.13370
           X            1.00000  -0.00000   0.00000
           Y            0.00000   1.00000   0.00000
           Z            0.00000   0.00000   1.00000
 This molecule is a prolate symmetric top.
 Rotational symmetry number  1.
 Rotational temperature (Kelvin)      1.66138
 Rotational constant (GHZ):          34.617554
    3 imaginary frequencies ignored.
 Zero-point vibrational energy      31763.7 (Joules/Mol)
                                    7.59170 (Kcal/Mol)
 Vibrational temperatures:   7640.58
          (Kelvin)

 Zero-point correction=                           0.012098 (Hartree/Particle)
 Thermal correction to Energy=                    0.014459
 Thermal correction to Enthalpy=                  0.015403
 Thermal correction to Gibbs Free Energy=        -0.007758
 Sum of electronic and zero-point Energies=           -100.953499
 Sum of electronic and thermal Energies=              -100.951139
 Sum of electronic and thermal Enthalpies=            -100.950195
 Sum of electronic and thermal Free Energies=         -100.973355

                     E (Thermal)             CV                S
                      KCal/Mol        Cal/Mol-Kelvin    Cal/Mol-Kelvin
 Total                    9.073              4.968             48.746
 Electronic               0.000              0.000              1.377
 Translational            0.889              2.981             35.068
 Rotational               0.592              1.987             12.301
 Vibrational              7.592              0.000              0.000

 Normal termination of Gaussian 16 at Fri Aug 22 15:54:06 2025.
