 Gaussian 16, Revision C.01,
 Gaussian 16:  ES64L-G16RevC.01  3-Jul-2019

 -----------------------------------------
 # sp b3lyp/6-311g** Force nosymm scf=(qc)
 -----------------------------------------

 -------------------
 Title Card Required
 -------------------
 Symbolic Z-matrix:
 Charge =  0 Multiplicity = 2

                          Input orientation:
 ---------------------------------------------------------------------
 Center     Atomic      Atomic             Coordinates (Angstroms)
 Number     Number       Type             X           Y           Z
 ---------------------------------------------------------------------
      1          1           0        0.000000    0.000000    0.000000
      2          1           0       -1.750000    0.000000    0.000000
      3          9           0        1.050000    0.000000    0.000000
 ---------------------------------------------------------------------

 SCF Done:  E(UB3LYP) =  -100.959984053     a.u. after    6 cycles

 Alpha  occ. eigenvalues --  -24.63593  -1.14464  -0.50995  -0.37922  -0.37922
 Alpha  occ. eigenvalues --   -0.36869
 Alpha virt. eigenvalues --    0.03934   0.22628   0.31963   0.94224   0.94224
 Alpha virt. eigenvalues --    0.99399   1.12001   1.19252   1.19252   1.37383
 Alpha virt. eigenvalues --    1.37383   1.51949   1.85911   2.25463   2.34644

  Beta  occ. eigenvalues --  -24.63415  -1.14020  -0.49906  -0.37764  -0.37764
  Beta virt. eigenvalues --   -0.14719   0.06652   0.29363   0.34656   0.94268
  Beta virt. eigenvalues --    0.94268   0.99919   1.21261   1.32248   1.32248
  Beta virt. eigenvalues --    1.42065   1.42065   1.56474   1.93080   2.34084

 Mulliken charges and spin densities:
               1          2
     1  H    0.307558  -0.000287
     2  H    0.028834   0.951170
     3  F   -0.336392   0.049118
 Sum of Mulliken charges =   0.00000   1.00000

 Dipole moment (field-independent basis, Debye):
    X=             -2.3765    Y=             -0.0000    Z=              0.0000  Tot=              2.3765
 Quadrupole moment (field-independent basis, Debye-Ang):
   XX=             -7.7914   YY=             -6.9274   ZZ=             -6.9274
   XY=             -0.0000   XZ=              0.0000   YZ=             -0.0000

  Exact polarizability:      13.003      -0.000       2.467       0.000       0.000       2.467
 Approx polarizability:      14.544       0.000       2.449       0.000       0.000       2.449

 ******    1 imaginary frequencies (negative Signs) ******

                      1                      2                      3
                      A                      A                      A
 Frequencies --   -152.9777              1048.7061              1048.7061
 Red. masses --      1.0473                 1.0251                 1.0251
 Frc consts  --      0.0144                 0.6643                 0.6643
 IR Inten    --      6.1179               111.9542               111.9542

                      4
                      A
 Frequencies --   2294.6918
 Red. masses --      1.0644
 Frc consts  --      3.3021
 IR Inten    --    220.6883

 - Thermochemistry -
 -------------------
 Temperature   298.150 Kelvin.  Pressure   1.00000 Atm.
 Atom     1 has atomic number  1 and mass   1.00783

 Molecular mass:    21.01405 amu.
 Principal axes and moments of inertia in atomic units:
                           1         2         3
     Eigenvalues --     0.00000  29.62567  29.62567
           X            1.00000  -0.00000   0.00000
           Y            0.00000   1.00000   0.00000
           Z            0.00000   0.00000   1.00000
 This molecule is a prolate symmetric top.
 Rotational symmetry number  1.
 Rotational temperature (Kelvin)      2.92361
 Rotational constant (GHZ):          60.918161
    1 imaginary frequencies ignored.
 Zero-point vibrational energy      26270.6 (Joules/Mol)
                                    6.27883 (Kcal/Mol)
 Vibrational temperatures:   1508.85  1508.85  3301.55
          (Kelvin)

 Zero-point correction=                           0.010006 (Hartree/Particle)
 Thermal correction to Energy=                    0.012428
 Thermal correction to Enthalpy=                  0.013372
 Thermal correction to Gibbs Free Energy=        -0.009329
 Sum of electronic and zero-point Energies=           -100.949978
 Sum of electronic and thermal Energies=              -100.947556
 Sum of electronic and thermal Enthalpies=            -100.946612
 Sum of electronic and thermal Free Energies=         -100.969313

                     E (Thermal)             CV                S
                      KCal/Mol        Cal/Mol-Kelvin    Cal/Mol-Kelvin
 Total                    7.798              5.625             47.777
 Electronic               0.000              0.000              1.377
 Translational            0.889              2.981             35.068
 Rotational               0.592              1.987             11.178
 Vibrational              6.317              0.657              0.154

 Normal termination of Gaussian 16 at Fri Aug 22 16:02:45 2025.
