 Gaussian 16, Revision C.01,
 Gaussian 16:  ES64L-G16RevC.01  3-Jul-2019

 -----------------------------------------
 # sp b3lyp/6-311g** Force nosymm scf=(qc)
 -----------------------------------------

 -------------------
 Title Card Required
 -------------------
 Symbolic Z-matrix:
 Charge =  0 Multiplicity = 2

                          Input orientation:
 ---------------------------------------------------------------------
 Center     Atomic      Atomic             Coordinates (Angstroms)
 Number     Number       Type             X           Y           Z
 ---------------------------------------------------------------------
      1          1           0        0.000000    0.000000    0.000000
      2          1           0       -1.050000    0.000000    0.000000
      3          9           0        1.600000    0.000000    0.000000
 ---------------------------------------------------------------------

 SCF Done:  E(UB3LYP) =  -100.913415074     a.u. after   12 cycles

 Alpha  occ. eigenvalues --  -24.69645  -1.16439  -0.52015  -0.41285  -0.41285
 Alpha  occ. eigenvalues --   -0.40792
 Alpha virt. eigenvalues --    0.01166   0.20344   0.34122   0.90580   0.90580
 Alpha virt. eigenvalues --    0.97589   1.07902   1.07902   1.12737   1.60417
 Alpha virt. eigenvalues --    1.60417   1.60434   2.19220   2.29741   2.53154

  Beta  occ. eigenvalues --  -24.67223  -1.09757  -0.42848  -0.38921  -0.38921
  Beta virt. eigenvalues --   -0.23772   0.03522   0.21833   0.35544   0.91526
  Beta virt. eigenvalues --    0.91526   1.03872   1.10652   1.10652   1.15679
  Beta virt. eigenvalues --    1.61987   1.61987   1.64087   2.21558   2.33637

 Mulliken charges and spin densities:
               1          2
     1  H    0.128271  -0.111682
     2  H    0.054732   0.366851
     3  F   -0.183002   0.744831
 Sum of Mulliken charges =   0.00000   1.00000

 Dipole moment (field-independent basis, Debye):
    X=             -1.6872    Y=              0.0000    Z=             -0.0000  Tot=              1.6872
 Quadrupole moment (field-independent basis, Debye-Ang):
   XX=             -7.2831   YY=             -7.1044   ZZ=             -7.1044
   XY=              0.0000   XZ=              0.0000   YZ=              0.0000

  Exact polarizability:      31.195       0.000       2.323       0.000       0.000       2.323
 Approx polarizability:      45.737       0.000       2.314      -0.000      -0.000       2.314

 ******    1 imaginary frequencies (negative Signs) ******

                      1                      2                      3
                      A                      A                      A
 Frequencies --  -1679.3164               801.0397              1317.5730
 Red. masses --      1.0404                 1.0716                 1.0136
 Frc consts  --      1.7287                 0.4051                 1.0368
 IR Inten    --   1023.8395               127.9126                 2.6465

                      4
                      A
 Frequencies --   1317.5730
 Red. masses --      1.0136
 Frc consts  --      1.0368
 IR Inten    --      2.6465

 - Thermochemistry -
 -------------------
 Temperature   298.150 Kelvin.  Pressure   1.00000 Atm.
 Atom     1 has atomic number  1 and mass   1.00783

 Molecular mass:    21.01405 amu.
 Principal axes and moments of inertia in atomic units:
                           1         2         3
     Eigenvalues --     0.00000  31.36979  31.36979
           X            1.00000  -0.00000   0.00000
           Y            0.00000   1.00000   0.00000
           Z            0.00000   0.00000   1.00000
 This molecule is a prolate symmetric top.
 Rotational symmetry number  1.
 Rotational temperature (Kelvin)      2.76106
 Rotational constant (GHZ):          57.531191
    1 imaginary frequencies ignored.
 Zero-point vibrational energy      20553.0 (Joules/Mol)
                                    4.91227 (Kcal/Mol)
 Vibrational temperatures:   1152.52  1895.69  1895.69
          (Kelvin)

 Zero-point correction=                           0.007828 (Hartree/Particle)
 Thermal correction to Energy=                    0.010288
 Thermal correction to Enthalpy=                  0.011232
 Thermal correction to Gibbs Free Energy=        -0.011572
 Sum of electronic and zero-point Energies=           -100.905587
 Sum of electronic and thermal Energies=              -100.903127
 Sum of electronic and thermal Enthalpies=            -100.902183
 Sum of electronic and thermal Free Energies=         -100.924987

                     E (Thermal)             CV                S
                      KCal/Mol        Cal/Mol-Kelvin    Cal/Mol-Kelvin
 Total                    6.456              5.896             47.994
 Electronic               0.000              0.000              1.377
 Translational            0.889              2.981             35.068
 Rotational               0.592              1.987             11.291
 Vibrational              4.974              0.928              0.257

 Normal termination of Gaussian 16 at Fri Aug 22 16:30:16 2025.
