 Gaussian 16, Revision C.01,
 Gaussian 16:  ES64L-G16RevC.01  3-Jul-2019

 -----------------------------------------
 # sp b3lyp/6-311g** Force nosymm scf=(qc)
 -----------------------------------------

 -------------------
 Title Card Required
 -------------------
 Symbolic Z-matrix:
 Charge =  0 Multiplicity = 2

                          Input orientation:
 ---------------------------------------------------------------------
 Center     Atomic      Atomic             Coordinates (Angstroms)
 Number     Number       Type             X           Y           Z
 ---------------------------------------------------------------------
      1          1           0        0.000000    0.000000    0.000000
      2          1           0       -1.850000    0.000000    0.000000
      3          9           0        1.400000    0.000000    0.000000
 ---------------------------------------------------------------------

 SCF Done:  E(UB3LYP) =  -100.883616726     a.u. after    9 cycles

 Alpha  occ. eigenvalues --  -24.63581  -1.10096  -0.45483  -0.37413  -0.36129
 Alpha  occ. eigenvalues --   -0.36129
 Alpha virt. eigenvalues --   -0.08271   0.22628   0.27655   0.93882   0.93882
 Alpha virt. eigenvalues --    1.01772   1.04416   1.19145   1.19145   1.35007
 Alpha virt. eigenvalues --    1.35007   1.41868   1.71858   2.11766   2.30904

  Beta  occ. eigenvalues --  -24.63041  -1.08687  -0.43144  -0.35622  -0.35622
  Beta virt. eigenvalues --   -0.18156  -0.04307   0.26312   0.31702   0.93801
  Beta virt. eigenvalues --    0.93801   1.04381   1.08819   1.30857   1.30857
  Beta virt. eigenvalues --    1.38312   1.38312   1.51082   1.73480   2.19688

 Mulliken charges and spin densities:
               1          2
     1  H    0.312536  -0.088417
     2  H    0.049671   0.921585
     3  F   -0.362207   0.166832
 Sum of Mulliken charges =   0.00000   1.00000

 Dipole moment (field-independent basis, Debye):
    X=             -2.9781    Y=              0.0000    Z=              0.0000  Tot=              2.9781
 Quadrupole moment (field-independent basis, Debye-Ang):
   XX=             -8.5345   YY=             -7.2125   ZZ=             -7.2125
   XY=              0.0000   XZ=              0.0000   YZ=              0.0000

  Exact polarizability:      24.919       0.000       2.293       0.000       0.000       2.293
 Approx polarizability:      34.397       0.000       2.237       0.000       0.000       2.237

 ******    2 imaginary frequencies (negative Signs) ******

                      1                      2                      3
                      A                      A                      A
 Frequencies --  -1740.7122              -327.7931              1055.3712
 Red. masses --      1.0303                 1.0826                 1.0217
 Frc consts  --      1.8393                 0.0685                 0.6704
 IR Inten    --    106.0188                 1.4461                71.3854

                      4
                      A
 Frequencies --   1055.3712
 Red. masses --      1.0217
 Frc consts  --      0.6704
 IR Inten    --     71.3854

 - Thermochemistry -
 -------------------
 Temperature   298.150 Kelvin.  Pressure   1.00000 Atm.
 Atom     1 has atomic number  1 and mass   1.00783

 Molecular mass:    21.01405 amu.
 Principal axes and moments of inertia in atomic units:
                           1         2         3
     Eigenvalues --     0.00000  41.33639  41.33639
           X            1.00000  -0.00000   0.00000
           Y            0.00000   1.00000   0.00000
           Z            0.00000   0.00000   1.00000
 This molecule is a prolate symmetric top.
 Rotational symmetry number  1.
 Rotational temperature (Kelvin)      2.09534
 Rotational constant (GHZ):          43.659863
    2 imaginary frequencies ignored.
 Zero-point vibrational energy      12625.0 (Joules/Mol)
                                    3.01746 (Kcal/Mol)
 Vibrational temperatures:   1518.44  1518.44
          (Kelvin)

 Zero-point correction=                           0.004809 (Hartree/Particle)
 Thermal correction to Energy=                    0.007229
 Thermal correction to Enthalpy=                  0.008173
 Thermal correction to Gibbs Free Energy=        -0.014840
 Sum of electronic and zero-point Energies=           -100.878808
 Sum of electronic and thermal Energies=              -100.876388
 Sum of electronic and thermal Enthalpies=            -100.875444
 Sum of electronic and thermal Free Energies=         -100.898457

                     E (Thermal)             CV                S
                      KCal/Mol        Cal/Mol-Kelvin    Cal/Mol-Kelvin
 Total                    4.536              5.609             48.434
 Electronic               0.000              0.000              1.377
 Translational            0.889              2.981             35.068
 Rotational               0.592              1.987             11.840
 Vibrational              3.055              0.641              0.150

 Normal termination of Gaussian 16 at Fri Aug 22 16:20:04 2025.
