 Gaussian 16, Revision C.01,
 Gaussian 16:  ES64L-G16RevC.01  3-Jul-2019

 -----------------------------------------
 # sp b3lyp/6-311g** Force nosymm scf=(qc)
 -----------------------------------------

 -------------------
 Title Card Required
 -------------------
 Symbolic Z-matrix:
 Charge =  0 Multiplicity = 2

                          Input orientation:
 ---------------------------------------------------------------------
 Center     Atomic      Atomic             Coordinates (Angstroms)
 Number     Number       Type             X           Y           Z
 ---------------------------------------------------------------------
      1          1           0        0.000000    0.000000    0.000000
      2          1           0       -4.000000    0.000000    0.000000
      3          9           0        1.050000    0.000000    0.000000
 ---------------------------------------------------------------------

 SCF Done:  E(UB3LYP) =  -100.958240214     a.u. after    6 cycles

 Alpha  occ. eigenvalues --  -24.64260  -1.14887  -0.50621  -0.38446  -0.38446
 Alpha  occ. eigenvalues --   -0.33389
 Alpha virt. eigenvalues --   -0.00948   0.23193   0.32570   0.93797   0.93797
 Alpha virt. eigenvalues --    0.99053   1.24064   1.24117   1.24117   1.28727
 Alpha virt. eigenvalues --    1.35512   1.35512   1.84249   2.13746   2.32839

  Beta  occ. eigenvalues --  -24.64259  -1.14885  -0.50619  -0.38446  -0.38446
  Beta virt. eigenvalues --   -0.05096  -0.00654   0.31114   0.39542   0.93797
  Beta virt. eigenvalues --    0.93797   0.99054   1.28713   1.35511   1.35511
  Beta virt. eigenvalues --    1.50243   1.50536   1.50536   1.84284   2.32327

 Mulliken charges and spin densities:
               1          2
     1  H    0.331412   0.000168
     2  H    0.000351   0.999619
     3  F   -0.331764   0.000213
 Sum of Mulliken charges =   0.00000   1.00000

 Dipole moment (field-independent basis, Debye):
    X=             -2.0935    Y=             -0.0000    Z=             -0.0000  Tot=              2.0935
 Quadrupole moment (field-independent basis, Debye-Ang):
   XX=             -8.4368   YY=             -7.0063   ZZ=             -7.0063
   XY=             -0.0000   XZ=             -0.0000   YZ=             -0.0000

  Exact polarizability:       6.936      -0.000       2.379       0.000       0.000       2.379
 Approx polarizability:       8.930      -0.000       2.347      -0.000       0.000       2.347

 ******    1 imaginary frequencies (negative Signs) ******

                      1                      2                      3
                      A                      A                      A
 Frequencies --    -31.3823              1126.8396              1126.8396
 Red. masses --      1.0532                 1.0382                 1.0382
 Frc consts  --      0.0006                 0.7767                 0.7767
 IR Inten    --      0.0123               165.4712               165.4712

                      4
                      A
 Frequencies --   2453.4786
 Red. masses --      1.0583
 Frc consts  --      3.7535
 IR Inten    --     79.9753

 - Thermochemistry -
 -------------------
 Temperature   298.150 Kelvin.  Pressure   1.00000 Atm.
 Atom     1 has atomic number  1 and mass   1.00783

 Molecular mass:    21.01405 amu.
 Principal axes and moments of inertia in atomic units:
                           1         2         3
     Eigenvalues --     0.00000  89.32892  89.32892
           X            1.00000  -0.00000   0.00000
           Y            0.00000   1.00000   0.00000
           Z            0.00000   0.00000   1.00000
 This molecule is a prolate symmetric top.
 Rotational symmetry number  1.
 Rotational temperature (Kelvin)      0.96961
 Rotational constant (GHZ):          20.203325
    1 imaginary frequencies ignored.
 Zero-point vibrational energy      28155.1 (Joules/Mol)
                                    6.72922 (Kcal/Mol)
 Vibrational temperatures:   1621.27  1621.27  3530.01
          (Kelvin)

 Zero-point correction=                           0.010724 (Hartree/Particle)
 Thermal correction to Energy=                    0.013129
 Thermal correction to Enthalpy=                  0.014073
 Thermal correction to Gibbs Free Energy=        -0.009649
 Sum of electronic and zero-point Energies=           -100.947517
 Sum of electronic and thermal Energies=              -100.945111
 Sum of electronic and thermal Enthalpies=            -100.944167
 Sum of electronic and thermal Free Energies=         -100.967889

                     E (Thermal)             CV                S
                      KCal/Mol        Cal/Mol-Kelvin    Cal/Mol-Kelvin
 Total                    8.239              5.486             49.928
 Electronic               0.000              0.000              1.377
 Translational            0.889              2.981             35.068
 Rotational               0.592              1.987             13.371
 Vibrational              6.757              0.518              0.112

 Normal termination of Gaussian 16 at Fri Aug 22 16:04:14 2025.
