 Gaussian 16, Revision C.01,
 Gaussian 16:  ES64L-G16RevC.01  3-Jul-2019

 -----------------------------------------
 # sp b3lyp/6-311g** Force nosymm scf=(qc)
 -----------------------------------------

 -------------------
 Title Card Required
 -------------------
 Symbolic Z-matrix:
 Charge =  0 Multiplicity = 2

                          Input orientation:
 ---------------------------------------------------------------------
 Center     Atomic      Atomic             Coordinates (Angstroms)
 Number     Number       Type             X           Y           Z
 ---------------------------------------------------------------------
      1          1           0        0.000000    0.000000    0.000000
      2          1           0       -2.650000    0.000000    0.000000
      3          9           0        1.700000    0.000000    0.000000
 ---------------------------------------------------------------------

 SCF Done:  E(UB3LYP) =  -100.815803176     a.u. after   11 cycles

 Alpha  occ. eigenvalues --  -24.63710  -1.08290  -0.40730  -0.35555  -0.35555
 Alpha  occ. eigenvalues --   -0.35445
 Alpha virt. eigenvalues --   -0.18378   0.21624   0.26566   0.95160   0.95160
 Alpha virt. eigenvalues --    0.97421   1.08003   1.21912   1.21912   1.23628
 Alpha virt. eigenvalues --    1.27490   1.27490   1.70836   2.12976   2.16065

  Beta  occ. eigenvalues --  -24.63840  -1.08641  -0.40722  -0.35681  -0.35681
  Beta virt. eigenvalues --   -0.18879  -0.08681   0.24848   0.35751   0.95238
  Beta virt. eigenvalues --    0.95238   0.97648   1.08109   1.28536   1.28536
  Beta virt. eigenvalues --    1.42709   1.42709   1.43252   1.71602   2.17581

 Mulliken charges and spin densities:
               1          2
     1  H    0.312638   0.062187
     2  H    0.019747   0.979082
     3  F   -0.332385  -0.041269
 Sum of Mulliken charges =  -0.00000   1.00000

 Dipole moment (field-independent basis, Debye):
    X=             -3.0327    Y=             -0.0000    Z=              0.0000  Tot=              3.0327
 Quadrupole moment (field-independent basis, Debye-Ang):
   XX=            -10.0919   YY=             -7.4219   ZZ=             -7.4219
   XY=             -0.0000   XZ=              0.0000   YZ=             -0.0000

  Exact polarizability:      28.448       0.000       2.109      -0.000      -0.000       2.109
 Approx polarizability:      55.594       0.000       2.024      -0.000       0.000       2.024

 ******    2 imaginary frequencies (negative Signs) ******

                      1                      2                      3
                      A                      A                      A
 Frequencies --  -1235.5115              -214.6769               852.1507
 Red. masses --      1.0509                 1.0606                 1.0241
 Frc consts  --      0.9452                 0.0288                 0.4382
 IR Inten    --    150.1732                 6.4514                85.5369

                      4
                      A
 Frequencies --    852.1507
 Red. masses --      1.0241
 Frc consts  --      0.4382
 IR Inten    --     85.5369

 - Thermochemistry -
 -------------------
 Temperature   298.150 Kelvin.  Pressure   1.00000 Atm.
 Atom     1 has atomic number  1 and mass   1.00783

 Molecular mass:    21.01405 amu.
 Principal axes and moments of inertia in atomic units:
                           1         2         3
     Eigenvalues --     0.00000  72.18553  72.18553
           X            1.00000  -0.00000   0.00000
           Y            0.00000   1.00000   0.00000
           Z            0.00000   0.00000   1.00000
 This molecule is a prolate symmetric top.
 Rotational symmetry number  1.
 Rotational temperature (Kelvin)      1.19988
 Rotational constant (GHZ):          25.001427
    2 imaginary frequencies ignored.
 Zero-point vibrational energy      10194.0 (Joules/Mol)
                                    2.43642 (Kcal/Mol)
 Vibrational temperatures:   1226.05  1226.05
          (Kelvin)

 Zero-point correction=                           0.003883 (Hartree/Particle)
 Thermal correction to Energy=                    0.006372
 Thermal correction to Enthalpy=                  0.007317
 Thermal correction to Gibbs Free Energy=        -0.016312
 Sum of electronic and zero-point Energies=           -100.811920
 Sum of electronic and thermal Energies=              -100.809431
 Sum of electronic and thermal Enthalpies=            -100.808487
 Sum of electronic and thermal Free Energies=         -100.832115

                     E (Thermal)             CV                S
                      KCal/Mol        Cal/Mol-Kelvin    Cal/Mol-Kelvin
 Total                    3.999              6.105             49.730
 Electronic               0.000              0.000              1.377
 Translational            0.889              2.981             35.068
 Rotational               0.592              1.987             12.947
 Vibrational              2.518              1.137              0.338

 Normal termination of Gaussian 16 at Fri Aug 22 16:38:02 2025.
