 Gaussian 16, Revision C.01,
 Gaussian 16:  ES64L-G16RevC.01  3-Jul-2019

 -----------------------------------------
 # sp b3lyp/6-311g** Force nosymm scf=(qc)
 -----------------------------------------

 -------------------
 Title Card Required
 -------------------
 Symbolic Z-matrix:
 Charge =  0 Multiplicity = 2

                          Input orientation:
 ---------------------------------------------------------------------
 Center     Atomic      Atomic             Coordinates (Angstroms)
 Number     Number       Type             X           Y           Z
 ---------------------------------------------------------------------
      1          1           0        0.000000    0.000000    0.000000
      2          1           0       -0.800000    0.000000    0.000000
      3          9           0        1.550000    0.000000    0.000000
 ---------------------------------------------------------------------

 SCF Done:  E(UB3LYP) =  -100.937531359     a.u. after    7 cycles

 Alpha  occ. eigenvalues --  -24.71272  -1.18178  -0.55094  -0.42744  -0.42744
 Alpha  occ. eigenvalues --   -0.42715
 Alpha virt. eigenvalues --    0.07720   0.19981   0.41171   0.89126   0.89126
 Alpha virt. eigenvalues --    0.97286   1.07705   1.07705   1.24779   1.68896
 Alpha virt. eigenvalues --    1.77308   1.77308   2.04536   2.40313   2.90248

  Beta  occ. eigenvalues --  -24.68626  -1.10873  -0.46442  -0.40161  -0.40161
  Beta virt. eigenvalues --   -0.23742   0.09193   0.20963   0.43143   0.90277
  Beta virt. eigenvalues --    0.90277   1.03608   1.09889   1.09889   1.28358
  Beta virt. eigenvalues --    1.71855   1.78580   1.78580   2.05726   2.42769

 Mulliken charges and spin densities:
               1          2
     1  H    0.115882  -0.052747
     2  H    0.027597   0.246530
     3  F   -0.143479   0.806217
 Sum of Mulliken charges =   0.00000   1.00000

 Dipole moment (field-independent basis, Debye):
    X=             -1.1844    Y=              0.0000    Z=             -0.0000  Tot=              1.1844
 Quadrupole moment (field-independent basis, Debye-Ang):
   XX=             -6.8872   YY=             -6.8572   ZZ=             -6.8572
   XY=              0.0000   XZ=             -0.0000   YZ=             -0.0000

  Exact polarizability:      21.986       0.000       2.297      -0.000      -0.000       2.297
 Approx polarizability:      28.637      -0.000       2.329       0.000      -0.000       2.329

 ******    1 imaginary frequencies (negative Signs) ******

                      1                      2                      3
                      A                      A                      A
 Frequencies --   -539.3707               566.9335               566.9335
 Red. masses --      1.1073                 1.0119                 1.0119
 Frc consts  --      0.1898                 0.1916                 0.1916
 IR Inten    --    127.4661                 0.7180                 0.7180

                      4
                      A
 Frequencies --   3311.9441
 Red. masses --      1.0088
 Frc consts  --      6.5199
 IR Inten    --    717.1563

 - Thermochemistry -
 -------------------
 Temperature   298.150 Kelvin.  Pressure   1.00000 Atm.
 Atom     1 has atomic number  1 and mass   1.00783

 Molecular mass:    21.01405 amu.
 Principal axes and moments of inertia in atomic units:
                           1         2         3
     Eigenvalues --     0.00000  25.89679  25.89679
           X            1.00000  -0.00000   0.00000
           Y            0.00000   1.00000   0.00000
           Z            0.00000   0.00000   1.00000
 This molecule is a prolate symmetric top.
 Rotational symmetry number  1.
 Rotational temperature (Kelvin)      3.34458
 Rotational constant (GHZ):          69.689761
    1 imaginary frequencies ignored.
 Zero-point vibrational energy      26591.9 (Joules/Mol)
                                    6.35561 (Kcal/Mol)
 Warning -- explicit consideration of   2 degrees of freedom as
           vibrations may cause significant error
 Vibrational temperatures:    815.69   815.69  4765.15
          (Kelvin)

 Zero-point correction=                           0.010128 (Hartree/Particle)
 Thermal correction to Energy=                    0.012847
 Thermal correction to Enthalpy=                  0.013791
 Thermal correction to Gibbs Free Energy=        -0.009194
 Sum of electronic and zero-point Energies=           -100.927403
 Sum of electronic and thermal Energies=              -100.924684
 Sum of electronic and thermal Enthalpies=            -100.923740
 Sum of electronic and thermal Free Energies=         -100.946725

                     E (Thermal)             CV                S
                      KCal/Mol        Cal/Mol-Kelvin    Cal/Mol-Kelvin
 Total                    8.062              7.174             48.376
 Electronic               0.000              0.000              1.377
 Translational            0.889              2.981             35.068
 Rotational               0.592              1.987             10.910
 Vibrational              6.580              2.206              1.020
 Vibration     1          0.923              1.103              0.510
 Vibration     2          0.923              1.103              0.510

 Normal termination of Gaussian 16 at Fri Aug 22 16:27:12 2025.
