 Gaussian 16, Revision C.01,
 Gaussian 16:  ES64L-G16RevC.01  3-Jul-2019

 -----------------------------------------
 # sp b3lyp/6-311g** Force nosymm scf=(qc)
 -----------------------------------------

 -------------------
 Title Card Required
 -------------------
 Symbolic Z-matrix:
 Charge =  0 Multiplicity = 2

                          Input orientation:
 ---------------------------------------------------------------------
 Center     Atomic      Atomic             Coordinates (Angstroms)
 Number     Number       Type             X           Y           Z
 ---------------------------------------------------------------------
      1          1           0        0.000000    0.000000    0.000000
      2          1           0       -3.300000    0.000000    0.000000
      3          9           0        2.750000    0.000000    0.000000
 ---------------------------------------------------------------------

 SCF Done:  E(UB3LYP) =  -100.763614247     a.u. after   19 cycles

 Alpha  occ. eigenvalues --  -24.73057  -1.19190  -0.52172  -0.43813  -0.43813
 Alpha  occ. eigenvalues --   -0.32776
 Alpha virt. eigenvalues --   -0.09334   0.23992   0.35501   0.89981   0.92883
 Alpha virt. eigenvalues --    0.92883   1.05380   1.24741   1.24741   1.25087
 Alpha virt. eigenvalues --    1.42384   1.42384   1.43353   2.14934   2.37968

  Beta  occ. eigenvalues --  -24.70105  -1.10753  -0.40863  -0.40863  -0.34450
  Beta virt. eigenvalues --   -0.24171  -0.07030   0.24238   0.37525   0.94315
  Beta virt. eigenvalues --    0.94315   0.98055   1.08678   1.22883   1.22883
  Beta virt. eigenvalues --    1.25098   1.45324   1.45575   1.45575   2.14527

 Mulliken charges and spin densities:
               1          2
     1  H    0.058123  -0.931023
     2  H    0.001081   0.996600
     3  F   -0.059204   0.934422
 Sum of Mulliken charges =  -0.00000   1.00000

 Dipole moment (field-independent basis, Debye):
    X=             -0.8510    Y=             -0.0000    Z=              0.0000  Tot=              0.8510
 Quadrupole moment (field-independent basis, Debye-Ang):
   XX=             -8.7779   YY=             -7.5984   ZZ=             -7.5984
   XY=             -0.0000   XZ=              0.0000   YZ=              0.0000

  Exact polarizability:      33.170      -0.000       2.022       0.000       0.000       2.022
 Approx polarizability:      37.463      -0.000       1.922       0.000      -0.000       1.922

 ******    2 imaginary frequencies (negative Signs) ******

                      1                      2                      3
                      A                      A                      A
 Frequencies --   -493.9504              -149.7203               183.2567
 Red. masses --      1.0470                 1.0646                 1.0203
 Frc consts  --      0.1505                 0.0141                 0.0202
 IR Inten    --     57.9464                 1.0867                 3.1561

                      4
                      A
 Frequencies --    183.2567
 Red. masses --      1.0203
 Frc consts  --      0.0202
 IR Inten    --      3.1561

 - Thermochemistry -
 -------------------
 Temperature   298.150 Kelvin.  Pressure   1.00000 Atm.
 Atom     1 has atomic number  1 and mass   1.00783

 Molecular mass:    21.01405 amu.
 Principal axes and moments of inertia in atomic units:
                           1         2         3
     Eigenvalues --     0.00000 145.58353 145.58353
           X            1.00000  -0.00000   0.00000
           Y            0.00000   1.00000   0.00000
           Z            0.00000   0.00000   1.00000
 This molecule is a prolate symmetric top.
 Rotational symmetry number  1.
 Rotational temperature (Kelvin)      0.59494
 Rotational constant (GHZ):          12.396603
    2 imaginary frequencies ignored.
 Zero-point vibrational energy       2192.2 (Joules/Mol)
                                    0.52396 (Kcal/Mol)
 Warning -- explicit consideration of   2 degrees of freedom as
           vibrations may cause significant error
 Vibrational temperatures:    263.67   263.67
          (Kelvin)

 Zero-point correction=                           0.000835 (Hartree/Particle)
 Thermal correction to Energy=                    0.004370
 Thermal correction to Enthalpy=                  0.005315
 Thermal correction to Gibbs Free Energy=        -0.020997
 Sum of electronic and zero-point Energies=           -100.762779
 Sum of electronic and thermal Energies=              -100.759244
 Sum of electronic and thermal Enthalpies=            -100.758300
 Sum of electronic and thermal Free Energies=         -100.784611

                     E (Thermal)             CV                S
                      KCal/Mol        Cal/Mol-Kelvin    Cal/Mol-Kelvin
 Total                    2.742              8.693             55.377
 Electronic               0.000              0.000              1.377
 Translational            0.889              2.981             35.068
 Rotational               0.592              1.987             14.341
 Vibrational              1.261              3.725              4.590
 Vibration     1          0.631              1.863              2.295
 Vibration     2          0.631              1.863              2.295

 Normal termination of Gaussian 16 at Fri Aug 22 18:34:58 2025.
