 Gaussian 16, Revision C.01,
 Gaussian 16:  ES64L-G16RevC.01  3-Jul-2019

 -----------------------------------------
 # sp b3lyp/6-311g** Force nosymm scf=(qc)
 -----------------------------------------

 -------------------
 Title Card Required
 -------------------
 Symbolic Z-matrix:
 Charge =  0 Multiplicity = 2

                          Input orientation:
 ---------------------------------------------------------------------
 Center     Atomic      Atomic             Coordinates (Angstroms)
 Number     Number       Type             X           Y           Z
 ---------------------------------------------------------------------
      1          1           0        0.000000    0.000000    0.000000
      2          1           0       -0.700000    0.000000    0.000000
      3          9           0        1.050000    0.000000    0.000000
 ---------------------------------------------------------------------

 SCF Done:  E(UB3LYP) =  -100.925742515     a.u. after    7 cycles

 Alpha  occ. eigenvalues --  -24.67204  -1.19284  -0.63017  -0.41324  -0.41324
 Alpha  occ. eigenvalues --   -0.36169
 Alpha virt. eigenvalues --    0.13313   0.18489   0.56303   0.87257   0.87257
 Alpha virt. eigenvalues --    0.95312   1.10408   1.10408   1.46702   1.70926
 Alpha virt. eigenvalues --    1.79507   1.79507   1.97888   2.41162   3.77357

  Beta  occ. eigenvalues --  -24.65454  -1.14851  -0.55075  -0.39729  -0.39729
  Beta virt. eigenvalues --   -0.18401   0.15280   0.19614   0.61289   0.89087
  Beta virt. eigenvalues --    0.89087   0.98880   1.14437   1.14437   1.49010
  Beta virt. eigenvalues --    1.78383   1.83245   1.83245   1.98740   2.47919

 Mulliken charges and spin densities:
               1          2
     1  H    0.275082  -0.018830
     2  H   -0.032592   0.562201
     3  F   -0.242490   0.456629
 Sum of Mulliken charges =   0.00000   1.00000

 Dipole moment (field-independent basis, Debye):
    X=             -1.5012    Y=              0.0000    Z=              0.0000  Tot=              1.5012
 Quadrupole moment (field-independent basis, Debye-Ang):
   XX=             -7.3995   YY=             -6.5328   ZZ=             -6.5328
   XY=              0.0000   XZ=              0.0000   YZ=             -0.0000

  Exact polarizability:      13.999      -0.000       2.509       0.000       0.000       2.509
 Approx polarizability:      17.079       0.000       2.563       0.000       0.000       2.563

 ******    2 imaginary frequencies (negative Signs) ******

                      1                      2                      3
                      A                      A                      A
 Frequencies --  -2187.9673             -2187.9673              1755.4246
 Red. masses --      1.0138                 1.0138                 1.1080
 Frc consts  --      2.8594                 2.8594                 2.0116
 IR Inten    --     22.9189                22.9189                 1.2860

                      4
                      A
 Frequencies --   4511.3480
 Red. masses --      1.0083
 Frc consts  --     12.0903
 IR Inten    --    209.3692

 - Thermochemistry -
 -------------------
 Temperature   298.150 Kelvin.  Pressure   1.00000 Atm.
 Atom     1 has atomic number  1 and mass   1.00783

 Molecular mass:    21.01405 amu.
 Principal axes and moments of inertia in atomic units:
                           1         2         3
     Eigenvalues --     0.00000  13.63663  13.63663
           X            1.00000  -0.00000   0.00000
           Y            0.00000   1.00000   0.00000
           Z            0.00000   0.00000   1.00000
 This molecule is a prolate symmetric top.
 Rotational symmetry number  1.
 Rotational temperature (Kelvin)      6.35156
 Rotational constant (GHZ):         132.345080
    2 imaginary frequencies ignored.
 Zero-point vibrational energy      37483.6 (Joules/Mol)
                                    8.95880 (Kcal/Mol)
 Vibrational temperatures:   2525.66  6490.82
          (Kelvin)

 Zero-point correction=                           0.014277 (Hartree/Particle)
 Thermal correction to Energy=                    0.016639
 Thermal correction to Enthalpy=                  0.017583
 Thermal correction to Gibbs Free Energy=        -0.004313
 Sum of electronic and zero-point Energies=           -100.911466
 Sum of electronic and thermal Energies=              -100.909104
 Sum of electronic and thermal Enthalpies=            -100.908159
 Sum of electronic and thermal Free Energies=         -100.930056

                     E (Thermal)             CV                S
                      KCal/Mol        Cal/Mol-Kelvin    Cal/Mol-Kelvin
 Total                   10.441              4.998             46.085
 Electronic               0.000              0.000              1.377
 Translational            0.889              2.981             35.068
 Rotational               0.592              1.987              9.636
 Vibrational              8.960              0.030              0.004

 Normal termination of Gaussian 16 at Fri Aug 22 16:02:01 2025.
