 Gaussian 16, Revision C.01,
 Gaussian 16:  ES64L-G16RevC.01  3-Jul-2019

 -----------------------------------------
 # sp b3lyp/6-311g** Force nosymm scf=(qc)
 -----------------------------------------

 -------------------
 Title Card Required
 -------------------
 Symbolic Z-matrix:
 Charge =  0 Multiplicity = 2

                          Input orientation:
 ---------------------------------------------------------------------
 Center     Atomic      Atomic             Coordinates (Angstroms)
 Number     Number       Type             X           Y           Z
 ---------------------------------------------------------------------
      1          1           0        0.000000    0.000000    0.000000
      2          1           0       -2.800000    0.000000    0.000000
      3          9           0        2.800000    0.000000    0.000000
 ---------------------------------------------------------------------

 SCF Done:  E(UB3LYP) =  -100.764389624     a.u. after   22 cycles

 Alpha  occ. eigenvalues --  -24.73310  -1.19423  -0.52425  -0.44023  -0.44023
 Alpha  occ. eigenvalues --   -0.33020
 Alpha virt. eigenvalues --   -0.10142   0.24795   0.34273   0.90040   0.92738
 Alpha virt. eigenvalues --    0.92738   1.05175   1.24548   1.24548   1.25961
 Alpha virt. eigenvalues --    1.40844   1.40844   1.42104   2.15483   2.37216

  Beta  occ. eigenvalues --  -24.70340  -1.10927  -0.41054  -0.41054  -0.34309
  Beta virt. eigenvalues --   -0.24332  -0.08306   0.25114   0.35955   0.94178
  Beta virt. eigenvalues --    0.94178   0.98391   1.08792   1.23081   1.23081
  Beta virt. eigenvalues --    1.25312   1.43680   1.43680   1.44067   2.15743

 Mulliken charges and spin densities:
               1          2
     1  H    0.049886  -0.927931
     2  H    0.003598   0.987408
     3  F   -0.053484   0.940523
 Sum of Mulliken charges =  -0.00000   1.00000

 Dipole moment (field-independent basis, Debye):
    X=             -0.8156    Y=             -0.0000    Z=             -0.0000  Tot=              0.8156
 Quadrupole moment (field-independent basis, Debye-Ang):
   XX=             -8.5061   YY=             -7.6198   ZZ=             -7.6198
   XY=             -0.0000   XZ=             -0.0000   YZ=             -0.0000

  Exact polarizability:      38.311      -0.000       2.018      -0.000      -0.000       2.018
 Approx polarizability:      39.705      -0.000       1.920      -0.000       0.000       1.920

 ******    2 imaginary frequencies (negative Signs) ******

                      1                      2                      3
                      A                      A                      A
 Frequencies --   -564.5065              -237.8006               214.1932
 Red. masses --      1.0239                 1.0897                 1.0179
 Frc consts  --      0.1922                 0.0363                 0.0275
 IR Inten    --     44.7259                10.4274                 2.1711

                      4
                      A
 Frequencies --    214.1932
 Red. masses --      1.0179
 Frc consts  --      0.0275
 IR Inten    --      2.1711

 - Thermochemistry -
 -------------------
 Temperature   298.150 Kelvin.  Pressure   1.00000 Atm.
 Atom     1 has atomic number  1 and mass   1.00783

 Molecular mass:    21.01405 amu.
 Principal axes and moments of inertia in atomic units:
                           1         2         3
     Eigenvalues --     0.00000 128.90199 128.90199
           X            1.00000  -0.00000   0.00000
           Y            0.00000   1.00000   0.00000
           Z            0.00000   0.00000   1.00000
 This molecule is a prolate symmetric top.
 Rotational symmetry number  1.
 Rotational temperature (Kelvin)      0.67194
 Rotational constant (GHZ):          14.000879
    2 imaginary frequencies ignored.
 Zero-point vibrational energy       2562.3 (Joules/Mol)
                                    0.61241 (Kcal/Mol)
 Warning -- explicit consideration of   2 degrees of freedom as
           vibrations may cause significant error
 Vibrational temperatures:    308.18   308.18
          (Kelvin)

 Zero-point correction=                           0.000976 (Hartree/Particle)
 Thermal correction to Energy=                    0.004414
 Thermal correction to Enthalpy=                  0.005358
 Thermal correction to Gibbs Free Energy=        -0.020565
 Sum of electronic and zero-point Energies=           -100.763414
 Sum of electronic and thermal Energies=              -100.759976
 Sum of electronic and thermal Enthalpies=            -100.759031
 Sum of electronic and thermal Free Energies=         -100.784955

                     E (Thermal)             CV                S
                      KCal/Mol        Cal/Mol-Kelvin    Cal/Mol-Kelvin
 Total                    2.770              8.607             54.560
 Electronic               0.000              0.000              1.377
 Translational            0.889              2.981             35.068
 Rotational               0.592              1.987             14.100
 Vibrational              1.289              3.639              4.015
 Vibration     1          0.644              1.819              2.008
 Vibration     2          0.644              1.819              2.008

 Normal termination of Gaussian 16 at Fri Aug 22 18:43:54 2025.
