 Gaussian 16, Revision C.01,
 Gaussian 16:  ES64L-G16RevC.01  3-Jul-2019

 -----------------------------------------
 # sp b3lyp/6-311g** Force nosymm scf=(qc)
 -----------------------------------------

 -------------------
 Title Card Required
 -------------------
 Symbolic Z-matrix:
 Charge =  0 Multiplicity = 2

                          Input orientation:
 ---------------------------------------------------------------------
 Center     Atomic      Atomic             Coordinates (Angstroms)
 Number     Number       Type             X           Y           Z
 ---------------------------------------------------------------------
      1          1           0        0.000000    0.000000    0.000000
      2          1           0       -0.900000    0.000000    0.000000
      3          9           0        1.350000    0.000000    0.000000
 ---------------------------------------------------------------------

 SCF Done:  E(UB3LYP) =  -100.939505804     a.u. after    7 cycles

 Alpha  occ. eigenvalues --  -24.68254  -1.16111  -0.55357  -0.40628  -0.40628
 Alpha  occ. eigenvalues --   -0.39982
 Alpha virt. eigenvalues --    0.07420   0.19508   0.38457   0.88948   0.88948
 Alpha virt. eigenvalues --    0.98089   1.07741   1.07741   1.31299   1.64895
 Alpha virt. eigenvalues --    1.69739   1.69739   2.18876   2.34200   2.61811

  Beta  occ. eigenvalues --  -24.66128  -1.10433  -0.47085  -0.38602  -0.38602
  Beta virt. eigenvalues --   -0.22421   0.09559   0.20965   0.41632   0.90108
  Beta virt. eigenvalues --    0.90108   1.02934   1.11270   1.11270   1.35310
  Beta virt. eigenvalues --    1.68749   1.72037   1.72037   2.20103   2.39617

 Mulliken charges and spin densities:
               1          2
     1  H    0.201545  -0.069240
     2  H    0.031726   0.439800
     3  F   -0.233271   0.629440
 Sum of Mulliken charges =  -0.00000   1.00000

 Dipole moment (field-independent basis, Debye):
    X=             -1.7468    Y=             -0.0000    Z=              0.0000  Tot=              1.7468
 Quadrupole moment (field-independent basis, Debye-Ang):
   XX=             -7.3685   YY=             -6.8514   ZZ=             -6.8514
   XY=             -0.0000   XZ=              0.0000   YZ=             -0.0000

  Exact polarizability:      22.801       0.000       2.432      -0.000      -0.000       2.432
 Approx polarizability:      31.613      -0.000       2.442       0.000      -0.000       2.442

 ******    1 imaginary frequencies (negative Signs) ******

                      1                      2                      3
                      A                      A                      A
 Frequencies --  -1419.1459               940.6885               940.6885
 Red. masses --      1.0750                 1.0138                 1.0138
 Frc consts  --      1.2756                 0.5285                 0.5285
 IR Inten    --    451.5805                 7.7438                 7.7438

                      4
                      A
 Frequencies --   1783.6125
 Red. masses --      1.0372
 Frc consts  --      1.9441
 IR Inten    --    388.9588

 - Thermochemistry -
 -------------------
 Temperature   298.150 Kelvin.  Pressure   1.00000 Atm.
 Atom     1 has atomic number  1 and mass   1.00783

 Molecular mass:    21.01405 amu.
 Principal axes and moments of inertia in atomic units:
                           1         2         3
     Eigenvalues --     0.00000  22.54219  22.54219
           X            1.00000  -0.00000   0.00000
           Y            0.00000   1.00000   0.00000
           Z            0.00000   0.00000   1.00000
 This molecule is a prolate symmetric top.
 Rotational symmetry number  1.
 Rotational temperature (Kelvin)      3.84230
 Rotational constant (GHZ):          80.060604
    1 imaginary frequencies ignored.
 Zero-point vibrational energy      21921.5 (Joules/Mol)
                                    5.23937 (Kcal/Mol)
 Vibrational temperatures:   1353.44  1353.44  2566.22
          (Kelvin)

 Zero-point correction=                           0.008349 (Hartree/Particle)
 Thermal correction to Energy=                    0.010804
 Thermal correction to Enthalpy=                  0.011748
 Thermal correction to Gibbs Free Energy=        -0.010736
 Sum of electronic and zero-point Energies=           -100.931156
 Sum of electronic and thermal Energies=              -100.928702
 Sum of electronic and thermal Enthalpies=            -100.927758
 Sum of electronic and thermal Free Energies=         -100.950241

                     E (Thermal)             CV                S
                      KCal/Mol        Cal/Mol-Kelvin    Cal/Mol-Kelvin
 Total                    6.780              5.889             47.321
 Electronic               0.000              0.000              1.377
 Translational            0.889              2.981             35.068
 Rotational               0.592              1.987             10.635
 Vibrational              5.298              0.921              0.241

 Normal termination of Gaussian 16 at Fri Aug 22 16:16:43 2025.
