 Gaussian 16, Revision C.01,
 Gaussian 16:  ES64L-G16RevC.01  3-Jul-2019

 -----------------------------------------
 # sp b3lyp/6-311g** Force nosymm scf=(qc)
 -----------------------------------------

 -------------------
 Title Card Required
 -------------------
 Symbolic Z-matrix:
 Charge =  0 Multiplicity = 2

                          Input orientation:
 ---------------------------------------------------------------------
 Center     Atomic      Atomic             Coordinates (Angstroms)
 Number     Number       Type             X           Y           Z
 ---------------------------------------------------------------------
      1          1           0        0.000000    0.000000    0.000000
      2          1           0       -1.650000    0.000000    0.000000
      3          9           0        0.900000    0.000000    0.000000
 ---------------------------------------------------------------------

 SCF Done:  E(UB3LYP) =  -100.971007606     a.u. after    5 cycles

 Alpha  occ. eigenvalues --  -24.63549  -1.18797  -0.54368  -0.39314  -0.39314
 Alpha  occ. eigenvalues --   -0.36588
 Alpha virt. eigenvalues --    0.09194   0.22199   0.38284   0.94521   0.94521
 Alpha virt. eigenvalues --    0.98177   1.17977   1.18619   1.18619   1.39875
 Alpha virt. eigenvalues --    1.39875   1.53139   2.00306   2.25358   2.48891

  Beta  occ. eigenvalues --  -24.63404  -1.18427  -0.53442  -0.39190  -0.39190
  Beta virt. eigenvalues --   -0.13750   0.11215   0.29762   0.41042   0.94596
  Beta virt. eigenvalues --    0.94596   0.98518   1.27083   1.31458   1.31458
  Beta virt. eigenvalues --    1.44846   1.44846   1.57857   2.11690   2.30169

 Mulliken charges and spin densities:
               1          2
     1  H    0.275000   0.008080
     2  H    0.022672   0.956621
     3  F   -0.297673   0.035298
 Sum of Mulliken charges =   0.00000   1.00000

 Dipole moment (field-independent basis, Debye):
    X=             -2.0800    Y=             -0.0000    Z=             -0.0000  Tot=              2.0800
 Quadrupole moment (field-independent basis, Debye-Ang):
   XX=             -7.4644   YY=             -6.7808   ZZ=             -6.7808
   XY=             -0.0000   XZ=             -0.0000   YZ=              0.0000

  Exact polarizability:      10.082      -0.000       2.518      -0.000      -0.000       2.518
 Approx polarizability:      10.477       0.000       2.515      -0.000      -0.000       2.515

 ******    2 imaginary frequencies (negative Signs) ******

                      1                      2                      3
                      A                      A                      A
 Frequencies --   -695.5205              -695.5205               437.0844
 Red. masses --      1.0267                 1.0267                 1.0523
 Frc consts  --      0.2926                 0.2926                 0.1185
 IR Inten    --    126.7035               126.7035                 0.2091

                      4
                      A
 Frequencies --   4355.0783
 Red. masses --      1.0592
 Frc consts  --     11.8368
 IR Inten    --    204.9218

 - Thermochemistry -
 -------------------
 Temperature   298.150 Kelvin.  Pressure   1.00000 Atm.
 Atom     1 has atomic number  1 and mass   1.00783

 Molecular mass:    21.01405 amu.
 Principal axes and moments of inertia in atomic units:
                           1         2         3
     Eigenvalues --     0.00000  24.26330  24.26330
           X            1.00000  -0.00000   0.00000
           Y            0.00000   1.00000   0.00000
           Z            0.00000   0.00000   1.00000
 This molecule is a prolate symmetric top.
 Rotational symmetry number  1.
 Rotational temperature (Kelvin)      3.56975
 Rotational constant (GHZ):          74.381535
    2 imaginary frequencies ignored.
 Zero-point vibrational energy      28663.5 (Joules/Mol)
                                    6.85074 (Kcal/Mol)
 Warning -- explicit consideration of   1 degrees of freedom as
           vibrations may cause significant error
 Vibrational temperatures:    628.87  6265.99
          (Kelvin)

 Zero-point correction=                           0.010917 (Hartree/Particle)
 Thermal correction to Energy=                    0.013553
 Thermal correction to Enthalpy=                  0.014497
 Thermal correction to Gibbs Free Energy=        -0.008339
 Sum of electronic and zero-point Energies=           -100.960090
 Sum of electronic and thermal Energies=              -100.957455
 Sum of electronic and thermal Enthalpies=            -100.956511
 Sum of electronic and thermal Free Energies=         -100.979346

                     E (Thermal)             CV                S
                      KCal/Mol        Cal/Mol-Kelvin    Cal/Mol-Kelvin
 Total                    8.505              6.357             48.062
 Electronic               0.000              0.000              1.377
 Translational            0.889              2.981             35.068
 Rotational               0.592              1.987             10.781
 Vibrational              7.023              1.389              0.836
 Vibration     1          0.797              1.389              0.836

 Normal termination of Gaussian 16 at Fri Aug 22 15:55:35 2025.
