 Gaussian 16, Revision C.01,
 Gaussian 16:  ES64L-G16RevC.01  3-Jul-2019

 -----------------------------------------
 # sp b3lyp/6-311g** Force nosymm scf=(qc)
 -----------------------------------------

 -------------------
 Title Card Required
 -------------------
 Symbolic Z-matrix:
 Charge =  0 Multiplicity = 2

                          Input orientation:
 ---------------------------------------------------------------------
 Center     Atomic      Atomic             Coordinates (Angstroms)
 Number     Number       Type             X           Y           Z
 ---------------------------------------------------------------------
      1          1           0        0.000000    0.000000    0.000000
      2          1           0       -3.700000    0.000000    0.000000
      3          9           0        0.950000    0.000000    0.000000
 ---------------------------------------------------------------------

 SCF Done:  E(UB3LYP) =  -100.971002021     a.u. after    6 cycles

 Alpha  occ. eigenvalues --  -24.64110  -1.17447  -0.52744  -0.39218  -0.39218
 Alpha  occ. eigenvalues --   -0.33508
 Alpha virt. eigenvalues --    0.01908   0.23904   0.36945   0.94216   0.94216
 Alpha virt. eigenvalues --    0.98128   1.23901   1.24002   1.24002   1.29222
 Alpha virt. eigenvalues --    1.36470   1.36470   1.95688   2.14195   2.34825

  Beta  occ. eigenvalues --  -24.64109  -1.17445  -0.52742  -0.39217  -0.39217
  Beta virt. eigenvalues --   -0.05323   0.02310   0.35564   0.40004   0.94217
  Beta virt. eigenvalues --    0.94217   0.98128   1.29110   1.36469   1.36469
  Beta virt. eigenvalues --    1.50323   1.50800   1.50800   1.95767   2.34633

 Mulliken charges and spin densities:
               1          2
     1  H    0.308040   0.000400
     2  H    0.000620   0.999288
     3  F   -0.308661   0.000311
 Sum of Mulliken charges =   0.00000   1.00000

 Dipole moment (field-independent basis, Debye):
    X=             -1.9613    Y=              0.0000    Z=              0.0000  Tot=              1.9613
 Quadrupole moment (field-independent basis, Debye-Ang):
   XX=             -8.0891   YY=             -6.9164   ZZ=             -6.9164
   XY=              0.0000   XZ=              0.0000   YZ=              0.0000

  Exact polarizability:       5.941       0.000       2.411      -0.000      -0.000       2.411
 Approx polarizability:       7.146       0.000       2.386      -0.000      -0.000       2.386

 ******    1 imaginary frequencies (negative Signs) ******

                      1                      2                      3
                      A                      A                      A
 Frequencies --    -41.4088               677.6543               677.6543
 Red. masses --      1.0532                 1.0385                 1.0385
 Frc consts  --      0.0011                 0.2810                 0.2810
 IR Inten    --      0.0255               176.1531               176.1531

                      4
                      A
 Frequencies --   3679.9555
 Red. masses --      1.0583
 Frc consts  --      8.4441
 IR Inten    --     93.3187

 - Thermochemistry -
 -------------------
 Temperature   298.150 Kelvin.  Pressure   1.00000 Atm.
 Atom     1 has atomic number  1 and mass   1.00783

 Molecular mass:    21.01405 amu.
 Principal axes and moments of inertia in atomic units:
                           1         2         3
     Eigenvalues --     0.00000  75.65471  75.65471
           X            1.00000  -0.00000   0.00000
           Y            0.00000   1.00000   0.00000
           Z            0.00000   0.00000   1.00000
 This molecule is a prolate symmetric top.
 Rotational symmetry number  1.
 Rotational temperature (Kelvin)      1.14486
 Rotational constant (GHZ):          23.854973
    1 imaginary frequencies ignored.
 Zero-point vibrational energy      30117.6 (Joules/Mol)
                                    7.19827 (Kcal/Mol)
 Vibrational temperatures:    974.99   974.99  5294.64
          (Kelvin)

 Zero-point correction=                           0.011471 (Hartree/Particle)
 Thermal correction to Energy=                    0.014076
 Thermal correction to Enthalpy=                  0.015020
 Thermal correction to Gibbs Free Energy=        -0.008810
 Sum of electronic and zero-point Energies=           -100.959531
 Sum of electronic and thermal Energies=              -100.956926
 Sum of electronic and thermal Enthalpies=            -100.955982
 Sum of electronic and thermal Free Energies=         -100.979812

                     E (Thermal)             CV                S
                      KCal/Mol        Cal/Mol-Kelvin    Cal/Mol-Kelvin
 Total                    8.833              6.713             50.153
 Electronic               0.000              0.000              1.377
 Translational            0.889              2.981             35.068
 Rotational               0.592              1.987             13.041
 Vibrational              7.351              1.745              0.667

 Normal termination of Gaussian 16 at Fri Aug 22 15:59:16 2025.
