 Gaussian 16, Revision C.01,
 Gaussian 16:  ES64L-G16RevC.01  3-Jul-2019

 -----------------------------------------
 # sp b3lyp/6-311g** Force nosymm scf=(qc)
 -----------------------------------------

 -------------------
 Title Card Required
 -------------------
 Symbolic Z-matrix:
 Charge =  0 Multiplicity = 2

                          Input orientation:
 ---------------------------------------------------------------------
 Center     Atomic      Atomic             Coordinates (Angstroms)
 Number     Number       Type             X           Y           Z
 ---------------------------------------------------------------------
      1          1           0        0.000000    0.000000    0.000000
      2          1           0       -2.900000    0.000000    0.000000
      3          9           0        2.300000    0.000000    0.000000
 ---------------------------------------------------------------------

 SCF Done:  E(UB3LYP) =  -100.773995159     a.u. after   14 cycles

 Alpha  occ. eigenvalues --  -24.70466  -1.16743  -0.49542  -0.41641  -0.41641
 Alpha  occ. eigenvalues --   -0.33571
 Alpha virt. eigenvalues --   -0.11996   0.23898   0.33494   0.89086   0.94236
 Alpha virt. eigenvalues --    0.94236   1.06482   1.23985   1.23985   1.25164
 Alpha virt. eigenvalues --    1.38237   1.38237   1.48183   2.14827   2.32847

  Beta  occ. eigenvalues --  -24.67754  -1.09065  -0.38946  -0.38946  -0.36232
  Beta virt. eigenvalues --   -0.22490  -0.08292   0.24639   0.36353   0.93607
  Beta virt. eigenvalues --    0.95454   0.95454   1.08655   1.21692   1.21692
  Beta virt. eigenvalues --    1.36903   1.43965   1.43965   1.44505   2.13166

 Mulliken charges and spin densities:
               1          2
     1  H    0.118162  -0.845074
     2  H    0.005170   0.989984
     3  F   -0.123332   0.855090
 Sum of Mulliken charges =   0.00000   1.00000

 Dipole moment (field-independent basis, Debye):
    X=             -1.5017    Y=              0.0000    Z=             -0.0000  Tot=              1.5017
 Quadrupole moment (field-independent basis, Debye-Ang):
   XX=             -9.4263   YY=             -7.5601   ZZ=             -7.5601
   XY=              0.0000   XZ=             -0.0000   YZ=             -0.0000

  Exact polarizability:      33.853       0.000       2.029      -0.000       0.000       2.029
 Approx polarizability:      42.008       0.000       1.923      -0.000      -0.000       1.923

 ******    2 imaginary frequencies (negative Signs) ******

                      1                      2                      3
                      A                      A                      A
 Frequencies --   -806.4087              -245.0937               329.0317
 Red. masses --      1.0469                 1.0648                 1.0210
 Frc consts  --      0.4011                 0.0377                 0.0651
 IR Inten    --     90.2630                 4.0777                12.5695

                      4
                      A
 Frequencies --    329.0317
 Red. masses --      1.0210
 Frc consts  --      0.0651
 IR Inten    --     12.5695

 - Thermochemistry -
 -------------------
 Temperature   298.150 Kelvin.  Pressure   1.00000 Atm.
 Atom     1 has atomic number  1 and mass   1.00783

 Molecular mass:    21.01405 amu.
 Principal axes and moments of inertia in atomic units:
                           1         2         3
     Eigenvalues --     0.00000 106.64681 106.64681
           X            1.00000  -0.00000   0.00000
           Y            0.00000   1.00000   0.00000
           Z            0.00000   0.00000   1.00000
 This molecule is a prolate symmetric top.
 Rotational symmetry number  1.
 Rotational temperature (Kelvin)      0.81216
 Rotational constant (GHZ):          16.922599
    2 imaginary frequencies ignored.
 Zero-point vibrational energy       3936.1 (Joules/Mol)
                                    0.94075 (Kcal/Mol)
 Warning -- explicit consideration of   2 degrees of freedom as
           vibrations may cause significant error
 Vibrational temperatures:    473.40   473.40
          (Kelvin)

 Zero-point correction=                           0.001499 (Hartree/Particle)
 Thermal correction to Energy=                    0.004630
 Thermal correction to Enthalpy=                  0.005574
 Thermal correction to Gibbs Free Energy=        -0.019465
 Sum of electronic and zero-point Energies=           -100.772496
 Sum of electronic and thermal Energies=              -100.769365
 Sum of electronic and thermal Enthalpies=            -100.768421
 Sum of electronic and thermal Free Energies=         -100.793460

                     E (Thermal)             CV                S
                      KCal/Mol        Cal/Mol-Kelvin    Cal/Mol-Kelvin
 Total                    2.905              8.203             52.698
 Electronic               0.000              0.000              1.377
 Translational            0.889              2.981             35.068
 Rotational               0.592              1.987             13.723
 Vibrational              1.424              3.235              2.530
 Vibration     1          0.712              1.617              1.265
 Vibration     2          0.712              1.617              1.265

 Normal termination of Gaussian 16 at Fri Aug 22 17:22:43 2025.
