 Gaussian 16, Revision C.01,
 Gaussian 16:  ES64L-G16RevC.01  3-Jul-2019

 -----------------------------------------
 # sp b3lyp/6-311g** Force nosymm scf=(qc)
 -----------------------------------------

 -------------------
 Title Card Required
 -------------------
 Symbolic Z-matrix:
 Charge =  0 Multiplicity = 2

                          Input orientation:
 ---------------------------------------------------------------------
 Center     Atomic      Atomic             Coordinates (Angstroms)
 Number     Number       Type             X           Y           Z
 ---------------------------------------------------------------------
      1          1           0        0.000000    0.000000    0.000000
      2          1           0       -3.900000    0.000000    0.000000
      3          9           0        0.650000    0.000000    0.000000
 ---------------------------------------------------------------------

 SCF Done:  E(UB3LYP) =  -100.800653769     a.u. after    6 cycles

 Alpha  occ. eigenvalues --  -24.62939  -1.31321  -0.59804  -0.42362  -0.42362
 Alpha  occ. eigenvalues --   -0.33151
 Alpha virt. eigenvalues --    0.06976   0.24463   0.55492   0.92876   0.92876
 Alpha virt. eigenvalues --    0.94688   1.24263   1.24352   1.24352   1.31656
 Alpha virt. eigenvalues --    1.46903   1.46903   1.95841   2.14312   3.09609

  Beta  occ. eigenvalues --  -24.62938  -1.31320  -0.59804  -0.42362  -0.42362
  Beta virt. eigenvalues --   -0.04915   0.07135   0.38747   0.55468   0.92876
  Beta virt. eigenvalues --    0.92876   0.94684   1.31478   1.46903   1.46903
  Beta virt. eigenvalues --    1.49320   1.49640   1.49640   1.95867   2.45696

 Mulliken charges and spin densities:
               1          2
     1  H    0.255148   0.000293
     2  H    0.000341   0.999617
     3  F   -0.255488   0.000091
 Sum of Mulliken charges =   0.00000   1.00000

 Dipole moment (field-independent basis, Debye):
    X=             -1.5076    Y=              0.0000    Z=              0.0000  Tot=              1.5076
 Quadrupole moment (field-independent basis, Debye-Ang):
   XX=             -7.1615   YY=             -6.6080   ZZ=             -6.6080
   XY=              0.0000   XZ=              0.0000   YZ=              0.0000

  Exact polarizability:       3.449       0.000       2.441      -0.000       0.000       2.441
 Approx polarizability:       3.761      -0.000       2.420      -0.000       0.000       2.420

 ******    3 imaginary frequencies (negative Signs) ******

                      1                      2                      3
                      A                      A                      A
 Frequencies --  -4607.6971             -4607.6971               -31.8002
 Red. masses --      1.0442                 1.0442                 1.0532
 Frc consts  --     13.0618                13.0618                 0.0006
 IR Inten    --    228.2533               228.2533                 0.0086

                      4
                      A
 Frequencies --  10873.4333
 Red. masses --      1.0583
 Frc consts  --     73.7219
 IR Inten    --    101.3144

 - Thermochemistry -
 -------------------
 Temperature   298.150 Kelvin.  Pressure   1.00000 Atm.
 Atom     1 has atomic number  1 and mass   1.00783

 Molecular mass:    21.01405 amu.
 Principal axes and moments of inertia in atomic units:
                           1         2         3
     Eigenvalues --     0.00000  71.36176  71.36176
           X            1.00000  -0.00000   0.00000
           Y            0.00000   1.00000   0.00000
           Z            0.00000   0.00000   1.00000
 This molecule is a prolate symmetric top.
 Rotational symmetry number  1.
 Rotational temperature (Kelvin)      1.21373
 Rotational constant (GHZ):          25.290031
    3 imaginary frequencies ignored.
 Zero-point vibrational energy      65037.6 (Joules/Mol)
                                   15.54435 (Kcal/Mol)
 Vibrational temperatures:  15644.45
          (Kelvin)

 Zero-point correction=                           0.024772 (Hartree/Particle)
 Thermal correction to Energy=                    0.027132
 Thermal correction to Enthalpy=                  0.028076
 Thermal correction to Gibbs Free Energy=         0.004619
 Sum of electronic and zero-point Energies=           -100.775882
 Sum of electronic and thermal Energies=              -100.773522
 Sum of electronic and thermal Enthalpies=            -100.772578
 Sum of electronic and thermal Free Energies=         -100.796035

                     E (Thermal)             CV                S
                      KCal/Mol        Cal/Mol-Kelvin    Cal/Mol-Kelvin
 Total                   17.026              4.968             49.370
 Electronic               0.000              0.000              1.377
 Translational            0.889              2.981             35.068
 Rotational               0.592              1.987             12.925
 Vibrational             15.544              0.000              0.000

 Normal termination of Gaussian 16 at Fri Aug 22 15:45:16 2025.
