 Gaussian 16, Revision C.01,
 Gaussian 16:  ES64L-G16RevC.01  3-Jul-2019

 -----------------------------------------
 # sp b3lyp/6-311g** Force nosymm scf=(qc)
 -----------------------------------------

 -------------------
 Title Card Required
 -------------------
 Symbolic Z-matrix:
 Charge =  0 Multiplicity = 2

                          Input orientation:
 ---------------------------------------------------------------------
 Center     Atomic      Atomic             Coordinates (Angstroms)
 Number     Number       Type             X           Y           Z
 ---------------------------------------------------------------------
      1          1           0        0.000000    0.000000    0.000000
      2          1           0       -0.950000    0.000000    0.000000
      3          9           0        0.500000    0.000000    0.000000
 ---------------------------------------------------------------------

 SCF Done:  E(UB3LYP) =  -100.201292767     a.u. after    7 cycles

 Alpha  occ. eigenvalues --  -24.66154  -1.47753  -0.68584  -0.47426  -0.47426
 Alpha  occ. eigenvalues --   -0.32302
 Alpha virt. eigenvalues --    0.16580   0.20761   0.84927   0.85404   0.85404
 Alpha virt. eigenvalues --    0.88618   1.11543   1.11543   1.51373   1.71668
 Alpha virt. eigenvalues --    1.85279   1.85279   2.33032   2.55171   3.73699

  Beta  occ. eigenvalues --  -24.65793  -1.46445  -0.67161  -0.47156  -0.47156
  Beta virt. eigenvalues --   -0.10441   0.17319   0.28370   0.85691   0.86565
  Beta virt. eigenvalues --    0.86565   0.94234   1.20110   1.20110   1.51921
  Beta virt. eigenvalues --    1.78420   1.90813   1.90813   2.48279   2.65681

 Mulliken charges and spin densities:
               1          2
     1  H    0.178501  -0.017758
     2  H   -0.069775   1.001332
     3  F   -0.108726   0.016426
 Sum of Mulliken charges =   0.00000   1.00000

 Dipole moment (field-independent basis, Debye):
    X=             -0.7017    Y=              0.0000    Z=              0.0000  Tot=              0.7017
 Quadrupole moment (field-independent basis, Debye-Ang):
   XX=             -7.1878   YY=             -6.3345   ZZ=             -6.3345
   XY=              0.0000   XZ=              0.0000   YZ=              0.0000

  Exact polarizability:       6.033       0.000       2.454      -0.000      -0.000       2.454
 Approx polarizability:       5.697      -0.000       2.526       0.000      -0.000       2.526

 ******    2 imaginary frequencies (negative Signs) ******

                      1                      2                      3
                      A                      A                      A
 Frequencies --  -9282.9137             -9282.9137              2584.9694
 Red. masses --      1.0272                 1.0272                 1.0543
 Frc consts  --     52.1537                52.1537                 4.1507
 IR Inten    --    185.8013               185.8013               148.9234

                      4
                      A
 Frequencies --  19197.7961
 Red. masses --      1.0573
 Frc consts  --    229.5829
 IR Inten    --     19.0899

 - Thermochemistry -
 -------------------
 Temperature   298.150 Kelvin.  Pressure   1.00000 Atm.
 Atom     1 has atomic number  1 and mass   1.00783

 Molecular mass:    21.01405 amu.
 Principal axes and moments of inertia in atomic units:
                           1         2         3
     Eigenvalues --     0.00000   7.81033   7.81033
           X            1.00000  -0.00000   0.00000
           Y            0.00000   1.00000   0.00000
           Z            0.00000   0.00000   1.00000
 This molecule is a prolate symmetric top.
 Rotational symmetry number  1.
 Rotational temperature (Kelvin)     11.08966
 Rotational constant (GHZ):         231.071062
    2 imaginary frequencies ignored.
 Zero-point vibrational energy     130289.9 (Joules/Mol)
                                   31.14003 (Kcal/Mol)
 Vibrational temperatures:   3719.19 27621.35
          (Kelvin)

 Zero-point correction=                           0.049625 (Hartree/Particle)
 Thermal correction to Energy=                    0.051985
 Thermal correction to Enthalpy=                  0.052929
 Thermal correction to Gibbs Free Energy=         0.031561
 Sum of electronic and zero-point Energies=           -100.151668
 Sum of electronic and thermal Energies=              -100.149307
 Sum of electronic and thermal Enthalpies=            -100.148363
 Sum of electronic and thermal Free Energies=         -100.169732

                     E (Thermal)             CV                S
                      KCal/Mol        Cal/Mol-Kelvin    Cal/Mol-Kelvin
 Total                   32.621              4.969             44.974
 Electronic               0.000              0.000              1.377
 Translational            0.889              2.981             35.068
 Rotational               0.592              1.987              8.528
 Vibrational             31.140              0.001              0.000

 Normal termination of Gaussian 16 at Fri Aug 22 15:36:10 2025.
