 Gaussian 16, Revision C.01,
 Gaussian 16:  ES64L-G16RevC.01  3-Jul-2019

 -----------------------------------------
 # sp b3lyp/6-311g** Force nosymm scf=(qc)
 -----------------------------------------

 -------------------
 Title Card Required
 -------------------
 Symbolic Z-matrix:
 Charge =  0 Multiplicity = 2

                          Input orientation:
 ---------------------------------------------------------------------
 Center     Atomic      Atomic             Coordinates (Angstroms)
 Number     Number       Type             X           Y           Z
 ---------------------------------------------------------------------
      1          1           0        0.000000    0.000000    0.000000
      2          1           0       -1.000000    0.000000    0.000000
      3          9           0        2.450000    0.000000    0.000000
 ---------------------------------------------------------------------

 SCF Done:  E(UB3LYP) =  -100.907583926     a.u. after    8 cycles

 Alpha  occ. eigenvalues --  -24.75542  -1.21498  -0.54781  -0.45916  -0.45916
 Alpha  occ. eigenvalues --   -0.39895
 Alpha virt. eigenvalues --    0.00259   0.21357   0.39331   0.89523   0.91219
 Alpha virt. eigenvalues --    0.91219   1.08175   1.08175   1.10502   1.37858
 Alpha virt. eigenvalues --    1.64835   1.64835   2.21927   2.36015   2.58450

  Beta  occ. eigenvalues --  -24.72455  -1.12643  -0.42825  -0.42825  -0.39767
  Beta virt. eigenvalues --   -0.26018   0.00800   0.21675   0.39741   0.92676
  Beta virt. eigenvalues --    0.92676   0.97854   1.08444   1.08444   1.14571
  Beta virt. eigenvalues --    1.38466   1.65034   1.65034   2.22317   2.36266

 Mulliken charges and spin densities:
               1          2
     1  H   -0.007981  -0.020300
     2  H    0.022694   0.044801
     3  F   -0.014714   0.975500
 Sum of Mulliken charges =   0.00000   1.00000

 Dipole moment (field-independent basis, Debye):
    X=             -0.2918    Y=              0.0000    Z=             -0.0000  Tot=              0.2918
 Quadrupole moment (field-independent basis, Debye-Ang):
   XX=             -5.8587   YY=             -7.2556   ZZ=             -7.2556
   XY=              0.0000   XZ=             -0.0000   YZ=              0.0000

  Exact polarizability:      23.632      -0.000       2.078      -0.000       0.000       2.078
 Approx polarizability:      27.345       0.000       2.133      -0.000       0.000       2.133

 ******    1 imaginary frequencies (negative Signs) ******

                      1                      2                      3
                      A                      A                      A
 Frequencies --   -210.8084              1518.7991              1518.7991
 Red. masses --      1.1083                 1.0107                 1.0107
 Frc consts  --      0.0290                 1.3736                 1.3736
 IR Inten    --     16.6378                 0.2965                 0.2965

                      4
                      A
 Frequencies --   1715.0522
 Red. masses --      1.0080
 Frc consts  --      1.7468
 IR Inten    --    134.0752

 - Thermochemistry -
 -------------------
 Temperature   298.150 Kelvin.  Pressure   1.00000 Atm.
 Atom     1 has atomic number  1 and mass   1.00783

 Molecular mass:    21.01405 amu.
 Principal axes and moments of inertia in atomic units:
                           1         2         3
     Eigenvalues --     0.00000  58.43180  58.43180
           X            1.00000  -0.00000   0.00000
           Y            0.00000   1.00000   0.00000
           Z            0.00000   0.00000   1.00000
 This molecule is a prolate symmetric top.
 Rotational symmetry number  1.
 Rotational temperature (Kelvin)      1.48231
 Rotational constant (GHZ):          30.886284
    1 imaginary frequencies ignored.
 Zero-point vibrational energy      28427.2 (Joules/Mol)
                                    6.79425 (Kcal/Mol)
 Vibrational temperatures:   2185.21  2185.21  2467.58
          (Kelvin)

 Zero-point correction=                           0.010827 (Hartree/Particle)
 Thermal correction to Energy=                    0.013199
 Thermal correction to Enthalpy=                  0.014143
 Thermal correction to Gibbs Free Energy=        -0.009138
 Sum of electronic and zero-point Energies=           -100.896757
 Sum of electronic and thermal Energies=              -100.894385
 Sum of electronic and thermal Enthalpies=            -100.893441
 Sum of electronic and thermal Free Energies=         -100.916722

                     E (Thermal)             CV                S
                      KCal/Mol        Cal/Mol-Kelvin    Cal/Mol-Kelvin
 Total                    8.282              5.143             48.999
 Electronic               0.000              0.000              1.377
 Translational            0.889              2.981             35.068
 Rotational               0.592              1.987             12.527
 Vibrational              6.801              0.175              0.026

 Normal termination of Gaussian 16 at Fri Aug 22 17:36:18 2025.
