 Gaussian 16, Revision C.01,
 Gaussian 16:  ES64L-G16RevC.01  3-Jul-2019

 -----------------------------------------
 # sp b3lyp/6-311g** Force nosymm scf=(qc)
 -----------------------------------------

 -------------------
 Title Card Required
 -------------------
 Symbolic Z-matrix:
 Charge =  0 Multiplicity = 2

                          Input orientation:
 ---------------------------------------------------------------------
 Center     Atomic      Atomic             Coordinates (Angstroms)
 Number     Number       Type             X           Y           Z
 ---------------------------------------------------------------------
      1          1           0        0.000000    0.000000    0.000000
      2          1           0       -1.100000    0.000000    0.000000
      3          9           0        3.000000    0.000000    0.000000
 ---------------------------------------------------------------------

 SCF Done:  E(UB3LYP) =  -100.890273946     a.u. after  285 cycles

 Alpha  occ. eigenvalues --  -24.76675  -1.22493  -0.55682  -0.46934  -0.46832
 Alpha  occ. eigenvalues --   -0.37357
 Alpha virt. eigenvalues --   -0.01628   0.22306   0.36602   0.85777   0.90650
 Alpha virt. eigenvalues --    0.93483   1.04275   1.10921   1.10928   1.29847
 Alpha virt. eigenvalues --    1.60037   1.60044   2.17699   2.34931   2.56006

  Beta  occ. eigenvalues --  -24.73514  -1.13407  -0.43779  -0.43663  -0.37340
  Beta virt. eigenvalues --   -0.26307  -0.01607   0.22329   0.36684   0.92148
  Beta virt. eigenvalues --    0.95198   0.95235   1.08100   1.10921   1.10927
  Beta virt. eigenvalues --    1.29854   1.60035   1.60043   2.17711   2.34936

 Mulliken charges and spin densities:
               1          2
     1  H   -0.002112  -0.000527
     2  H   -0.006067  -0.000550
     3  F    0.008179   1.001077
 Sum of Mulliken charges =   0.00000   1.00000

 Dipole moment (field-independent basis, Debye):
    X=              0.1027    Y=             -0.0000    Z=             -0.0000  Tot=              0.1027
 Quadrupole moment (field-independent basis, Debye-Ang):
   XX=             -6.1430   YY=             -6.7272   ZZ=             -7.2005
   XY=              0.0000   XZ=              0.0000   YZ=              0.3612

  Exact polarizability:      14.488       0.000       2.434       0.000       0.192       2.182
 Approx polarizability:      20.052       0.000       2.567       0.000       0.242       2.249

                      1                      2                      3
                      A                      A                      A
 Frequencies --     46.4288              1027.5764              1526.7103
 Red. masses --      1.1085                 1.0078                 1.0102
 Frc consts  --      0.0014                 0.6270                 1.3873
 IR Inten    --      0.4668                 0.8789                 0.0005

                      4
                      A
 Frequencies --   1528.0124
 Red. masses --      1.0102
 Frc consts  --      1.3897
 IR Inten    --      0.0006

 - Thermochemistry -
 -------------------
 Temperature   298.150 Kelvin.  Pressure   1.00000 Atm.
 Atom     1 has atomic number  1 and mass   1.00783

 Molecular mass:    21.01405 amu.
 Principal axes and moments of inertia in atomic units:
                           1         2         3
     Eigenvalues --     0.00000  84.18930  84.18930
           X            1.00000  -0.00000   0.00000
           Y            0.00000   1.00000   0.00000
           Z            0.00000   0.00000   1.00000
 This molecule is a prolate symmetric top.
 Rotational symmetry number  1.
 Rotational temperature (Kelvin)      1.02880
 Rotational constant (GHZ):          21.436706
 Zero-point vibrational energy      24695.3 (Joules/Mol)
                                    5.90231 (Kcal/Mol)
 Warning -- explicit consideration of   1 degrees of freedom as
           vibrations may cause significant error
 Vibrational temperatures:     66.80  1478.45  2196.60  2198.47
          (Kelvin)

 Zero-point correction=                           0.009406 (Hartree/Particle)
 Thermal correction to Energy=                    0.012651
 Thermal correction to Enthalpy=                  0.013595
 Thermal correction to Gibbs Free Energy=        -0.012427
 Sum of electronic and zero-point Energies=           -100.880868
 Sum of electronic and thermal Energies=              -100.877623
 Sum of electronic and thermal Enthalpies=            -100.876679
 Sum of electronic and thermal Free Energies=         -100.902701

                     E (Thermal)             CV                S
                      KCal/Mol        Cal/Mol-Kelvin    Cal/Mol-Kelvin
 Total                    7.938              7.431             54.767
 Electronic               0.000              0.000              1.377
 Translational            0.889              2.981             35.068
 Rotational               0.592              1.987             13.253
 Vibrational              6.457              2.463              5.069
 Vibration     1          0.595              1.979              4.964

 Normal termination of Gaussian 16 at Fri Aug 22 19:26:03 2025.
