 Gaussian 16, Revision C.01,
 Gaussian 16:  ES64L-G16RevC.01  3-Jul-2019

 -----------------------------------------
 # sp b3lyp/6-311g** Force nosymm scf=(qc)
 -----------------------------------------

 -------------------
 Title Card Required
 -------------------
 Symbolic Z-matrix:
 Charge =  0 Multiplicity = 2

                          Input orientation:
 ---------------------------------------------------------------------
 Center     Atomic      Atomic             Coordinates (Angstroms)
 Number     Number       Type             X           Y           Z
 ---------------------------------------------------------------------
      1          1           0        0.000000    0.000000    0.000000
      2          1           0       -3.100000    0.000000    0.000000
      3          9           0        1.600000    0.000000    0.000000
 ---------------------------------------------------------------------

 SCF Done:  E(UB3LYP) =  -100.834373245     a.u. after   12 cycles

 Alpha  occ. eigenvalues --  -24.64844  -1.10506  -0.43363  -0.36772  -0.36772
 Alpha  occ. eigenvalues --   -0.34477
 Alpha virt. eigenvalues --   -0.15178   0.21276   0.28302   0.94208   0.94208
 Alpha virt. eigenvalues --    1.00526   1.07219   1.23048   1.23048   1.23457
 Alpha virt. eigenvalues --    1.32157   1.32157   1.74494   2.13662   2.21033

  Beta  occ. eigenvalues --  -24.63997  -1.08233  -0.41357  -0.35960  -0.35960
  Beta virt. eigenvalues --   -0.17224  -0.07737   0.22806   0.37199   0.93902
  Beta virt. eigenvalues --    0.93902   1.01452   1.07483   1.27699   1.27699
  Beta virt. eigenvalues --    1.44419   1.44815   1.44815   1.72487   2.14514

 Mulliken charges and spin densities:
               1          2
     1  H    0.324774  -0.261184
     2  H    0.005586   0.993616
     3  F   -0.330360   0.267568
 Sum of Mulliken charges =  -0.00000   1.00000

 Dipole moment (field-independent basis, Debye):
    X=             -2.6653    Y=             -0.0000    Z=             -0.0000  Tot=              2.6653
 Quadrupole moment (field-independent basis, Debye-Ang):
   XX=             -9.9631   YY=             -7.3741   ZZ=             -7.3741
   XY=             -0.0000   XZ=             -0.0000   YZ=              0.0000

  Exact polarizability:      21.840       0.000       2.150      -0.000       0.000       2.150
 Approx polarizability:      35.907       0.000       2.064      -0.000      -0.000       2.064

 ******    2 imaginary frequencies (negative Signs) ******

                      1                      2                      3
                      A                      A                      A
 Frequencies --  -1892.2123              -159.9362               901.0948
 Red. masses --      1.0566                 1.0550                 1.0275
 Frc consts  --      2.2289                 0.0159                 0.4916
 IR Inten    --     48.7315                 1.4048                97.2310

                      4
                      A
 Frequencies --    901.0948
 Red. masses --      1.0275
 Frc consts  --      0.4916
 IR Inten    --     97.2310

 - Thermochemistry -
 -------------------
 Temperature   298.150 Kelvin.  Pressure   1.00000 Atm.
 Atom     1 has atomic number  1 and mass   1.00783

 Molecular mass:    21.01405 amu.
 Principal axes and moments of inertia in atomic units:
                           1         2         3
     Eigenvalues --     0.00000  81.86479  81.86479
           X            1.00000  -0.00000   0.00000
           Y            0.00000   1.00000   0.00000
           Z            0.00000   0.00000   1.00000
 This molecule is a prolate symmetric top.
 Rotational symmetry number  1.
 Rotational temperature (Kelvin)      1.05801
 Rotational constant (GHZ):          22.045389
    2 imaginary frequencies ignored.
 Zero-point vibrational energy      10779.5 (Joules/Mol)
                                    2.57636 (Kcal/Mol)
 Vibrational temperatures:   1296.47  1296.47
          (Kelvin)

 Zero-point correction=                           0.004106 (Hartree/Particle)
 Thermal correction to Energy=                    0.006574
 Thermal correction to Enthalpy=                  0.007518
 Thermal correction to Gibbs Free Energy=        -0.016201
 Sum of electronic and zero-point Energies=           -100.830268
 Sum of electronic and thermal Energies=              -100.827800
 Sum of electronic and thermal Enthalpies=            -100.826855
 Sum of electronic and thermal Free Energies=         -100.850574

                     E (Thermal)             CV                S
                      KCal/Mol        Cal/Mol-Kelvin    Cal/Mol-Kelvin
 Total                    4.125              5.965             49.921
 Electronic               0.000              0.000              1.377
 Translational            0.889              2.981             35.068
 Rotational               0.592              1.987             13.197
 Vibrational              2.644              0.997              0.278

 Normal termination of Gaussian 16 at Fri Aug 22 16:32:08 2025.
