 Gaussian 16, Revision C.01,
 Gaussian 16:  ES64L-G16RevC.01  3-Jul-2019

 -----------------------------------------
 # sp b3lyp/6-311g** Force nosymm scf=(qc)
 -----------------------------------------

 -------------------
 Title Card Required
 -------------------
 Symbolic Z-matrix:
 Charge =  0 Multiplicity = 2

                          Input orientation:
 ---------------------------------------------------------------------
 Center     Atomic      Atomic             Coordinates (Angstroms)
 Number     Number       Type             X           Y           Z
 ---------------------------------------------------------------------
      1          1           0        0.000000    0.000000    0.000000
      2          1           0       -1.200000    0.000000    0.000000
      3          9           0        3.150000    0.000000    0.000000
 ---------------------------------------------------------------------

 SCF Done:  E(UB3LYP) =  -100.872125174     a.u. after   83 cycles

 Alpha  occ. eigenvalues --  -24.76581  -1.22417  -0.55611  -0.46839  -0.46762
 Alpha  occ. eigenvalues --   -0.36225
 Alpha virt. eigenvalues --   -0.03929   0.22939   0.34400   0.85828   0.90702
 Alpha virt. eigenvalues --    0.93117   1.02852   1.12999   1.13004   1.22306
 Alpha virt. eigenvalues --    1.54501   1.54507   2.08309   2.32175   2.55176

  Beta  occ. eigenvalues --  -24.73421  -1.13335  -0.43677  -0.43594  -0.36217
  Beta virt. eigenvalues --   -0.26241  -0.03916   0.22956   0.34464   0.92201
  Beta virt. eigenvalues --    0.94728   0.95288   1.06803   1.12999   1.13004
  Beta virt. eigenvalues --    1.22316   1.54501   1.54506   2.08319   2.32179

 Mulliken charges and spin densities:
               1          2
     1  H   -0.001068  -0.000270
     2  H   -0.005108  -0.000515
     3  F    0.006176   1.000785
 Sum of Mulliken charges =   0.00000   1.00000

 Dipole moment (field-independent basis, Debye):
    X=              0.0847    Y=             -0.0000    Z=             -0.0000  Tot=              0.0847
 Quadrupole moment (field-independent basis, Debye-Ang):
   XX=             -6.1780   YY=             -6.8262   ZZ=             -7.3104
   XY=             -0.0000   XZ=             -0.0000   YZ=              0.3577

  Exact polarizability:      16.372      -0.000       2.441      -0.000       0.191       2.182
 Approx polarizability:      24.398      -0.000       2.561      -0.000       0.240       2.235

 ******    1 imaginary frequencies (negative Signs) ******

                      1                      2                      3
                      A                      A                      A
 Frequencies --   -451.2720                43.1478              1469.4164
 Red. masses --      1.0078                 1.1085                 1.0104
 Frc consts  --      0.1209                 0.0012                 1.2853
 IR Inten    --      0.5591                 0.3881                 0.0012

                      4
                      A
 Frequencies --   1470.3750
 Red. masses --      1.0104
 Frc consts  --      1.2870
 IR Inten    --      0.0013

 - Thermochemistry -
 -------------------
 Temperature   298.150 Kelvin.  Pressure   1.00000 Atm.
 Atom     1 has atomic number  1 and mass   1.00783

 Molecular mass:    21.01405 amu.
 Principal axes and moments of inertia in atomic units:
                           1         2         3
     Eigenvalues --     0.00000  94.10426  94.10426
           X            1.00000  -0.00000   0.00000
           Y            0.00000   1.00000   0.00000
           Z            0.00000   0.00000   1.00000
 This molecule is a prolate symmetric top.
 Rotational symmetry number  1.
 Rotational temperature (Kelvin)      0.92040
 Rotational constant (GHZ):          19.178103
    1 imaginary frequencies ignored.
 Zero-point vibrational energy      17841.9 (Joules/Mol)
                                    4.26433 (Kcal/Mol)
 Warning -- explicit consideration of   1 degrees of freedom as
           vibrations may cause significant error
 Vibrational temperatures:     62.08  2114.16  2115.54
          (Kelvin)

 Zero-point correction=                           0.006796 (Hartree/Particle)
 Thermal correction to Energy=                    0.010017
 Thermal correction to Enthalpy=                  0.010961
 Thermal correction to Gibbs Free Energy=        -0.015198
 Sum of electronic and zero-point Energies=           -100.865330
 Sum of electronic and thermal Energies=              -100.862109
 Sum of electronic and thermal Enthalpies=            -100.861164
 Sum of electronic and thermal Free Energies=         -100.887323

                     E (Thermal)             CV                S
                      KCal/Mol        Cal/Mol-Kelvin    Cal/Mol-Kelvin
 Total                    6.285              7.114             55.056
 Electronic               0.000              0.000              1.377
 Translational            0.889              2.981             35.068
 Rotational               0.592              1.987             13.474
 Vibrational              4.804              2.146              5.136
 Vibration     1          0.595              1.980              5.109

 Normal termination of Gaussian 16 at Fri Aug 22 20:04:44 2025.
