 Gaussian 16, Revision C.01,
 Gaussian 16:  ES64L-G16RevC.01  3-Jul-2019

 -----------------------------------------
 # sp b3lyp/6-311g** Force nosymm scf=(qc)
 -----------------------------------------

 -------------------
 Title Card Required
 -------------------
 Symbolic Z-matrix:
 Charge =  0 Multiplicity = 2

                          Input orientation:
 ---------------------------------------------------------------------
 Center     Atomic      Atomic             Coordinates (Angstroms)
 Number     Number       Type             X           Y           Z
 ---------------------------------------------------------------------
      1          1           0        0.000000    0.000000    0.000000
      2          1           0       -3.300000    0.000000    0.000000
      3          9           0        1.800000    0.000000    0.000000
 ---------------------------------------------------------------------

 SCF Done:  E(UB3LYP) =  -100.804859537     a.u. after   22 cycles

 Alpha  occ. eigenvalues --  -24.66584  -1.12766  -0.45379  -0.38333  -0.38333
 Alpha  occ. eigenvalues --   -0.33911
 Alpha virt. eigenvalues --   -0.14912   0.21794   0.30161   0.92868   0.94778
 Alpha virt. eigenvalues --    0.94778   1.05879   1.23613   1.23613   1.23834
 Alpha virt. eigenvalues --    1.33701   1.33701   1.69758   2.13886   2.25900

  Beta  occ. eigenvalues --  -24.64681  -1.07525  -0.39337  -0.36475  -0.36475
  Beta virt. eigenvalues --   -0.19280  -0.07488   0.22261   0.37531   0.93560
  Beta virt. eigenvalues --    0.94789   0.94789   1.07969   1.23773   1.23773
  Beta virt. eigenvalues --    1.44839   1.45302   1.45302   1.64939   2.12464

 Mulliken charges and spin densities:
               1          2
     1  H    0.253939  -0.594653
     2  H    0.003233   0.995858
     3  F   -0.257173   0.598795
 Sum of Mulliken charges =   0.00000   1.00000

 Dipole moment (field-independent basis, Debye):
    X=             -2.3116    Y=             -0.0000    Z=             -0.0000  Tot=              2.3116
 Quadrupole moment (field-independent basis, Debye-Ang):
   XX=            -10.0886   YY=             -7.4419   ZZ=             -7.4419
   XY=              0.0000   XZ=              0.0000   YZ=             -0.0000

  Exact polarizability:      24.540       0.000       2.097       0.000       0.000       2.097
 Approx polarizability:      37.029      -0.000       1.987      -0.000      -0.000       1.987

 ******    2 imaginary frequencies (negative Signs) ******

                      1                      2                      3
                      A                      A                      A
 Frequencies --  -1517.5657              -147.6709               654.0058
 Red. masses --      1.0571                 1.0545                 1.0267
 Frc consts  --      1.4343                 0.0135                 0.2587
 IR Inten    --    127.3858                 0.7388                59.1487

                      4
                      A
 Frequencies --    654.0058
 Red. masses --      1.0267
 Frc consts  --      0.2587
 IR Inten    --     59.1487

 - Thermochemistry -
 -------------------
 Temperature   298.150 Kelvin.  Pressure   1.00000 Atm.
 Atom     1 has atomic number  1 and mass   1.00783

 Molecular mass:    21.01405 amu.
 Principal axes and moments of inertia in atomic units:
                           1         2         3
     Eigenvalues --     0.00000  97.05318  97.05318
           X            1.00000  -0.00000   0.00000
           Y            0.00000   1.00000   0.00000
           Z            0.00000   0.00000   1.00000
 This molecule is a prolate symmetric top.
 Rotational symmetry number  1.
 Rotational temperature (Kelvin)      0.89244
 Rotational constant (GHZ):          18.595384
    2 imaginary frequencies ignored.
 Zero-point vibrational energy       7823.6 (Joules/Mol)
                                    1.86990 (Kcal/Mol)
 Vibrational temperatures:    940.97   940.97
          (Kelvin)

 Zero-point correction=                           0.002980 (Hartree/Particle)
 Thermal correction to Energy=                    0.005605
 Thermal correction to Enthalpy=                  0.006550
 Thermal correction to Gibbs Free Energy=        -0.017545
 Sum of electronic and zero-point Energies=           -100.801880
 Sum of electronic and thermal Energies=              -100.799254
 Sum of electronic and thermal Enthalpies=            -100.798310
 Sum of electronic and thermal Free Energies=         -100.822405

                     E (Thermal)             CV                S
                      KCal/Mol        Cal/Mol-Kelvin    Cal/Mol-Kelvin
 Total                    3.517              6.808             50.712
 Electronic               0.000              0.000              1.377
 Translational            0.889              2.981             35.068
 Rotational               0.592              1.987             13.536
 Vibrational              2.036              1.840              0.731

 Normal termination of Gaussian 16 at Fri Aug 22 16:44:48 2025.
