 Gaussian 16, Revision C.01,
 Gaussian 16:  ES64L-G16RevC.01  3-Jul-2019

 -----------------------------------------
 # sp b3lyp/6-311g** Force nosymm scf=(qc)
 -----------------------------------------

 -------------------
 Title Card Required
 -------------------
 Symbolic Z-matrix:
 Charge =  0 Multiplicity = 2

                          Input orientation:
 ---------------------------------------------------------------------
 Center     Atomic      Atomic             Coordinates (Angstroms)
 Number     Number       Type             X           Y           Z
 ---------------------------------------------------------------------
      1          1           0        0.000000    0.000000    0.000000
      2          1           0       -1.000000    0.000000    0.000000
      3          9           0        1.750000    0.000000    0.000000
 ---------------------------------------------------------------------

 SCF Done:  E(UB3LYP) =  -100.914987641     a.u. after    9 cycles

 Alpha  occ. eigenvalues --  -24.71606  -1.18094  -0.52613  -0.42802  -0.42802
 Alpha  occ. eigenvalues --   -0.41425
 Alpha virt. eigenvalues --    0.01555   0.20694   0.36018   0.90770   0.90770
 Alpha virt. eigenvalues --    0.94787   1.07342   1.07342   1.11348   1.58539
 Alpha virt. eigenvalues --    1.63575   1.63575   2.20669   2.32111   2.60019

  Beta  occ. eigenvalues --  -24.68908  -1.10536  -0.42273  -0.40141  -0.40141
  Beta virt. eigenvalues --   -0.24477   0.03361   0.21769   0.36999   0.91885
  Beta virt. eigenvalues --    0.91885   1.01835   1.09181   1.09181   1.14081
  Beta virt. eigenvalues --    1.61616   1.64690   1.64690   2.22506   2.34385

 Mulliken charges and spin densities:
               1          2
     1  H    0.074484  -0.083641
     2  H    0.048668   0.246046
     3  F   -0.123151   0.837595
 Sum of Mulliken charges =   0.00000   1.00000

 Dipole moment (field-independent basis, Debye):
    X=             -1.2638    Y=              0.0000    Z=             -0.0000  Tot=              1.2638
 Quadrupole moment (field-independent basis, Debye-Ang):
   XX=             -6.9287   YY=             -7.1285   ZZ=             -7.1285
   XY=              0.0000   XZ=             -0.0000   YZ=              0.0000

  Exact polarizability:      30.678       0.000       2.253       0.000       0.000       2.253
 Approx polarizability:      42.559       0.000       2.262      -0.000       0.000       2.262

 ******    1 imaginary frequencies (negative Signs) ******

                      1                      2                      3
                      A                      A                      A
 Frequencies --   -873.1623              1250.3933              1377.0011
 Red. masses --      1.0863                 1.0269                 1.0126
 Frc consts  --      0.4880                 0.9460                 1.1312
 IR Inten    --    484.8100               512.4273                 0.3702

                      4
                      A
 Frequencies --   1377.0011
 Red. masses --      1.0126
 Frc consts  --      1.1312
 IR Inten    --      0.3702

 - Thermochemistry -
 -------------------
 Temperature   298.150 Kelvin.  Pressure   1.00000 Atm.
 Atom     1 has atomic number  1 and mass   1.00783

 Molecular mass:    21.01405 amu.
 Principal axes and moments of inertia in atomic units:
                           1         2         3
     Eigenvalues --     0.00000  34.74418  34.74418
           X            1.00000  -0.00000   0.00000
           Y            0.00000   1.00000   0.00000
           Z            0.00000   0.00000   1.00000
 This molecule is a prolate symmetric top.
 Rotational symmetry number  1.
 Rotational temperature (Kelvin)      2.49290
 Rotational constant (GHZ):          51.943705
    1 imaginary frequencies ignored.
 Zero-point vibrational energy      23951.6 (Joules/Mol)
                                    5.72457 (Kcal/Mol)
 Vibrational temperatures:   1799.04  1981.20  1981.20
          (Kelvin)

 Zero-point correction=                           0.009123 (Hartree/Particle)
 Thermal correction to Energy=                    0.011513
 Thermal correction to Enthalpy=                  0.012457
 Thermal correction to Gibbs Free Energy=        -0.010355
 Sum of electronic and zero-point Energies=           -100.905865
 Sum of electronic and thermal Energies=              -100.903474
 Sum of electronic and thermal Enthalpies=            -100.902530
 Sum of electronic and thermal Free Energies=         -100.925343

                     E (Thermal)             CV                S
                      KCal/Mol        Cal/Mol-Kelvin    Cal/Mol-Kelvin
 Total                    7.225              5.371             48.013
 Electronic               0.000              0.000              1.377
 Translational            0.889              2.981             35.068
 Rotational               0.592              1.987             11.494
 Vibrational              5.743              0.403              0.073

 Normal termination of Gaussian 16 at Fri Aug 22 16:39:31 2025.
