 Gaussian 16, Revision C.01,
 Gaussian 16:  ES64L-G16RevC.01  3-Jul-2019

 -----------------------------------------
 # sp b3lyp/6-311g** Force nosymm scf=(qc)
 -----------------------------------------

 -------------------
 Title Card Required
 -------------------
 Symbolic Z-matrix:
 Charge =  0 Multiplicity = 2

                          Input orientation:
 ---------------------------------------------------------------------
 Center     Atomic      Atomic             Coordinates (Angstroms)
 Number     Number       Type             X           Y           Z
 ---------------------------------------------------------------------
      1          1           0        0.000000    0.000000    0.000000
      2          1           0       -3.350000    0.000000    0.000000
      3          9           0        3.250000    0.000000    0.000000
 ---------------------------------------------------------------------

 SCF Done:  E(UB3LYP) =  -100.759968025     a.u. after   23 cycles

 Alpha  occ. eigenvalues --  -24.74858  -1.20860  -0.53979  -0.45322  -0.45322
 Alpha  occ. eigenvalues --   -0.32455
 Alpha virt. eigenvalues --   -0.07705   0.24333   0.36315   0.88484   0.91807
 Alpha virt. eigenvalues --    0.91807   1.02660   1.25056   1.25056   1.25318
 Alpha virt. eigenvalues --    1.44366   1.44366   1.44470   2.15146   2.40563

  Beta  occ. eigenvalues --  -24.71778  -1.12021  -0.42237  -0.42237  -0.33211
  Beta virt. eigenvalues --   -0.25205  -0.06783   0.24140   0.37655   0.93285
  Beta virt. eigenvalues --    0.93285   0.97439   1.06560   1.24180   1.24180
  Beta virt. eigenvalues --    1.24445   1.45534   1.45780   1.45780   2.15501

 Mulliken charges and spin densities:
               1          2
     1  H    0.021208  -0.973210
     2  H    0.000433   0.996965
     3  F   -0.021641   0.976245
 Sum of Mulliken charges =  -0.00000   1.00000

 Dipole moment (field-independent basis, Debye):
    X=             -0.3684    Y=              0.0000    Z=             -0.0000  Tot=              0.3684
 Quadrupole moment (field-independent basis, Debye-Ang):
   XX=             -7.7949   YY=             -7.6203   ZZ=             -7.6203
   XY=              0.0000   XZ=             -0.0000   YZ=              0.0000

  Exact polarizability:      29.723       0.000       2.029      -0.000       0.000       2.029
 Approx polarizability:      26.286       0.000       1.930      -0.000      -0.000       1.930

 ******    2 imaginary frequencies (negative Signs) ******

                      1                      2                      3
                      A                      A                      A
 Frequencies --   -317.0610              -128.7773               107.6400
 Red. masses --      1.0320                 1.0807                 1.0183
 Frc consts  --      0.0611                 0.0106                 0.0070
 IR Inten    --     22.0495                 1.9006                 0.4066

                      4
                      A
 Frequencies --    107.6400
 Red. masses --      1.0183
 Frc consts  --      0.0070
 IR Inten    --      0.4066

 - Thermochemistry -
 -------------------
 Temperature   298.150 Kelvin.  Pressure   1.00000 Atm.
 Atom     1 has atomic number  1 and mass   1.00783

 Molecular mass:    21.01405 amu.
 Principal axes and moments of inertia in atomic units:
                           1         2         3
     Eigenvalues --     0.00000 178.04059 178.04059
           X            1.00000  -0.00000   0.00000
           Y            0.00000   1.00000   0.00000
           Z            0.00000   0.00000   1.00000
 This molecule is a prolate symmetric top.
 Rotational symmetry number  1.
 Rotational temperature (Kelvin)      0.48648
 Rotational constant (GHZ):          10.136684
    2 imaginary frequencies ignored.
 Zero-point vibrational energy       1287.7 (Joules/Mol)
                                    0.30776 (Kcal/Mol)
 Warning -- explicit consideration of   2 degrees of freedom as
           vibrations may cause significant error
 Vibrational temperatures:    154.87   154.87
          (Kelvin)

 Zero-point correction=                           0.000490 (Hartree/Particle)
 Thermal correction to Energy=                    0.004291
 Thermal correction to Enthalpy=                  0.005235
 Thermal correction to Gibbs Free Energy=        -0.022232
 Sum of electronic and zero-point Energies=           -100.759478
 Sum of electronic and thermal Energies=              -100.755677
 Sum of electronic and thermal Enthalpies=            -100.754733
 Sum of electronic and thermal Free Energies=         -100.782200

                     E (Thermal)             CV                S
                      KCal/Mol        Cal/Mol-Kelvin    Cal/Mol-Kelvin
 Total                    2.693              8.854             57.809
 Electronic               0.000              0.000              1.377
 Translational            0.889              2.981             35.068
 Rotational               0.592              1.987             14.741
 Vibrational              1.211              3.886              6.622
 Vibration     1          0.606              1.943              3.311
 Vibration     2          0.606              1.943              3.311

 Normal termination of Gaussian 16 at Fri Aug 22 20:36:03 2025.
