 Gaussian 16, Revision C.01,
 Gaussian 16:  ES64L-G16RevC.01  3-Jul-2019

 -----------------------------------------
 # sp b3lyp/6-311g** Force nosymm scf=(qc)
 -----------------------------------------

 -------------------
 Title Card Required
 -------------------
 Symbolic Z-matrix:
 Charge =  0 Multiplicity = 2

                          Input orientation:
 ---------------------------------------------------------------------
 Center     Atomic      Atomic             Coordinates (Angstroms)
 Number     Number       Type             X           Y           Z
 ---------------------------------------------------------------------
      1          1           0        0.000000    0.000000    0.000000
      2          1           0       -1.900000    0.000000    0.000000
      3          9           0        3.100000    0.000000    0.000000
 ---------------------------------------------------------------------

 SCF Done:  E(UB3LYP) =  -100.780702853     a.u. after   27 cycles

 Alpha  occ. eigenvalues --  -24.74777  -1.20783  -0.53898  -0.45256  -0.45256
 Alpha  occ. eigenvalues --   -0.33680
 Alpha virt. eigenvalues --   -0.11630   0.25513   0.31344   0.89212   0.91844
 Alpha virt. eigenvalues --    0.91844   1.03355   1.12938   1.24224   1.24224
 Alpha virt. eigenvalues --    1.36708   1.36708   1.55122   2.13001   2.37967

  Beta  occ. eigenvalues --  -24.71710  -1.11984  -0.42185  -0.42185  -0.33713
  Beta virt. eigenvalues --   -0.25245  -0.11225   0.25831   0.31781   0.93316
  Beta virt. eigenvalues --    0.93316   0.98055   1.07284   1.13042   1.24158
  Beta virt. eigenvalues --    1.24158   1.37272   1.37272   1.55587   2.14027

 Mulliken charges and spin densities:
               1          2
     1  H    0.010196  -0.778418
     2  H    0.014194   0.806489
     3  F   -0.024390   0.971929
 Sum of Mulliken charges =   0.00000   1.00000

 Dipole moment (field-independent basis, Debye):
    X=             -0.5157    Y=             -0.0000    Z=             -0.0000  Tot=              0.5157
 Quadrupole moment (field-independent basis, Debye-Ang):
   XX=             -6.9799   YY=             -7.7293   ZZ=             -7.7293
   XY=             -0.0000   XZ=             -0.0000   YZ=              0.0000

  Exact polarizability:      57.847      -0.000       2.007      -0.000       0.000       2.007
 Approx polarizability:      55.021      -0.000       1.942      -0.000      -0.000       1.942

 ******    2 imaginary frequencies (negative Signs) ******

                      1                      2                      3
                      A                      A                      A
 Frequencies --  -1548.9011              -210.4228               649.3979
 Red. masses --      1.0079                 1.1084                 1.0131
 Frc consts  --      1.4247                 0.0289                 0.2517
 IR Inten    --     43.9572                22.9405                 0.0168

                      4
                      A
 Frequencies --    649.3979
 Red. masses --      1.0131
 Frc consts  --      0.2517
 IR Inten    --      0.0168

 - Thermochemistry -
 -------------------
 Temperature   298.150 Kelvin.  Pressure   1.00000 Atm.
 Atom     1 has atomic number  1 and mass   1.00783

 Molecular mass:    21.01405 amu.
 Principal axes and moments of inertia in atomic units:
                           1         2         3
     Eigenvalues --     0.00000 113.23695 113.23695
           X            1.00000  -0.00000   0.00000
           Y            0.00000   1.00000   0.00000
           Z            0.00000   0.00000   1.00000
 This molecule is a prolate symmetric top.
 Rotational symmetry number  1.
 Rotational temperature (Kelvin)      0.76489
 Rotational constant (GHZ):          15.937742
    2 imaginary frequencies ignored.
 Zero-point vibrational energy       7768.5 (Joules/Mol)
                                    1.85672 (Kcal/Mol)
 Vibrational temperatures:    934.34   934.34
          (Kelvin)

 Zero-point correction=                           0.002959 (Hartree/Particle)
 Thermal correction to Energy=                    0.005589
 Thermal correction to Enthalpy=                  0.006533
 Thermal correction to Gibbs Free Energy=        -0.017714
 Sum of electronic and zero-point Energies=           -100.777744
 Sum of electronic and thermal Energies=              -100.775114
 Sum of electronic and thermal Enthalpies=            -100.774170
 Sum of electronic and thermal Free Energies=         -100.798417

                     E (Thermal)             CV                S
                      KCal/Mol        Cal/Mol-Kelvin    Cal/Mol-Kelvin
 Total                    3.507              6.826             51.032
 Electronic               0.000              0.000              1.377
 Translational            0.889              2.981             35.068
 Rotational               0.592              1.987             13.842
 Vibrational              2.026              1.858              0.744

 Normal termination of Gaussian 16 at Fri Aug 22 19:54:21 2025.
