 Gaussian 16, Revision C.01,
 Gaussian 16:  ES64L-G16RevC.01  3-Jul-2019

 -----------------------------------------
 # sp b3lyp/6-311g** Force nosymm scf=(qc)
 -----------------------------------------

 -------------------
 Title Card Required
 -------------------
 Symbolic Z-matrix:
 Charge =  0 Multiplicity = 2

                          Input orientation:
 ---------------------------------------------------------------------
 Center     Atomic      Atomic             Coordinates (Angstroms)
 Number     Number       Type             X           Y           Z
 ---------------------------------------------------------------------
      1          1           0        0.000000    0.000000    0.000000
      2          1           0       -2.400000    0.000000    0.000000
      3          9           0        1.350000    0.000000    0.000000
 ---------------------------------------------------------------------

 SCF Done:  E(UB3LYP) =  -100.890516938     a.u. after    7 cycles

 Alpha  occ. eigenvalues --  -24.64025  -1.10453  -0.45270  -0.36594  -0.36594
 Alpha  occ. eigenvalues --   -0.35772
 Alpha virt. eigenvalues --   -0.09382   0.23863   0.26951   0.93323   0.93323
 Alpha virt. eigenvalues --    1.02813   1.16682   1.21713   1.21713   1.28054
 Alpha virt. eigenvalues --    1.33706   1.33706   1.72386   2.12454   2.24321

  Beta  occ. eigenvalues --  -24.63909  -1.10155  -0.44819  -0.36487  -0.36487
  Beta virt. eigenvalues --   -0.13896  -0.05455   0.26475   0.35592   0.93301
  Beta virt. eigenvalues --    0.93301   1.03088   1.19584   1.33343   1.33343
  Beta virt. eigenvalues --    1.42187   1.42187   1.44545   1.72628   2.22954

 Mulliken charges and spin densities:
               1          2
     1  H    0.345326  -0.014823
     2  H    0.017341   0.978929
     3  F   -0.362667   0.035894
 Sum of Mulliken charges =  -0.00000   1.00000

 Dipole moment (field-independent basis, Debye):
    X=             -2.6645    Y=              0.0000    Z=              0.0000  Tot=              2.6645
 Quadrupole moment (field-independent basis, Debye-Ang):
   XX=             -8.8852   YY=             -7.2270   ZZ=             -7.2270
   XY=              0.0000   XZ=              0.0000   YZ=              0.0000

  Exact polarizability:      17.464      -0.000       2.280      -0.000       0.000       2.280
 Approx polarizability:      24.718      -0.000       2.224      -0.000       0.000       2.224

 ******    2 imaginary frequencies (negative Signs) ******

                      1                      2                      3
                      A                      A                      A
 Frequencies --  -1015.6306              -209.7309              1101.7111
 Red. masses --      1.0445                 1.0673                 1.0262
 Frc consts  --      0.6348                 0.0277                 0.7338
 IR Inten    --    149.4213                 0.5912               110.5320

                      4
                      A
 Frequencies --   1101.7111
 Red. masses --      1.0262
 Frc consts  --      0.7338
 IR Inten    --    110.5320

 - Thermochemistry -
 -------------------
 Temperature   298.150 Kelvin.  Pressure   1.00000 Atm.
 Atom     1 has atomic number  1 and mass   1.00783

 Molecular mass:    21.01405 amu.
 Principal axes and moments of inertia in atomic units:
                           1         2         3
     Eigenvalues --     0.00000  52.68074  52.68074
           X            1.00000  -0.00000   0.00000
           Y            0.00000   1.00000   0.00000
           Z            0.00000   0.00000   1.00000
 This molecule is a prolate symmetric top.
 Rotational symmetry number  1.
 Rotational temperature (Kelvin)      1.64413
 Rotational constant (GHZ):          34.258081
    2 imaginary frequencies ignored.
 Zero-point vibrational energy      13179.4 (Joules/Mol)
                                    3.14995 (Kcal/Mol)
 Vibrational temperatures:   1585.12  1585.12
          (Kelvin)

 Zero-point correction=                           0.005020 (Hartree/Particle)
 Thermal correction to Energy=                    0.007430
 Thermal correction to Enthalpy=                  0.008374
 Thermal correction to Gibbs Free Energy=        -0.014856
 Sum of electronic and zero-point Energies=           -100.885497
 Sum of electronic and thermal Energies=              -100.883087
 Sum of electronic and thermal Enthalpies=            -100.882143
 Sum of electronic and thermal Free Energies=         -100.905373

                     E (Thermal)             CV                S
                      KCal/Mol        Cal/Mol-Kelvin    Cal/Mol-Kelvin
 Total                    4.662              5.525             48.891
 Electronic               0.000              0.000              1.377
 Translational            0.889              2.981             35.068
 Rotational               0.592              1.987             12.321
 Vibrational              3.181              0.557              0.124

 Normal termination of Gaussian 16 at Fri Aug 22 16:17:53 2025.
