 Gaussian 16, Revision C.01,
 Gaussian 16:  ES64L-G16RevC.01  3-Jul-2019

 -----------------------------------------
 # sp b3lyp/6-311g** Force nosymm scf=(qc)
 -----------------------------------------

 -------------------
 Title Card Required
 -------------------
 Symbolic Z-matrix:
 Charge =  0 Multiplicity = 2

                          Input orientation:
 ---------------------------------------------------------------------
 Center     Atomic      Atomic             Coordinates (Angstroms)
 Number     Number       Type             X           Y           Z
 ---------------------------------------------------------------------
      1          1           0        0.000000    0.000000    0.000000
      2          1           0       -3.850000    0.000000    0.000000
      3          9           0        1.400000    0.000000    0.000000
 ---------------------------------------------------------------------

 SCF Done:  E(UB3LYP) =  -100.877277803     a.u. after    7 cycles

 Alpha  occ. eigenvalues --  -24.64383  -1.10287  -0.44565  -0.36720  -0.36720
 Alpha  occ. eigenvalues --   -0.33655
 Alpha virt. eigenvalues --   -0.11916   0.20827   0.27475   0.93101   0.93101
 Alpha virt. eigenvalues --    1.03157   1.15187   1.23821   1.23853   1.23853
 Alpha virt. eigenvalues --    1.32593   1.32593   1.71350   2.13070   2.21352

  Beta  occ. eigenvalues --  -24.64377  -1.10272  -0.44552  -0.36715  -0.36715
  Beta virt. eigenvalues --   -0.12096  -0.06014   0.23805   0.38411   0.93099
  Beta virt. eigenvalues --    0.93099   1.03171   1.15201   1.32572   1.32572
  Beta virt. eigenvalues --    1.46617   1.46957   1.46957   1.71368   2.20430

 Mulliken charges and spin densities:
               1          2
     1  H    0.356704  -0.001008
     2  H    0.000699   0.999261
     3  F   -0.357403   0.001747
 Sum of Mulliken charges =   0.00000   1.00000

 Dipole moment (field-independent basis, Debye):
    X=             -2.5023    Y=             -0.0000    Z=             -0.0000  Tot=              2.5023
 Quadrupole moment (field-independent basis, Debye-Ang):
   XX=             -9.5979   YY=             -7.2636   ZZ=             -7.2636
   XY=             -0.0000   XZ=             -0.0000   YZ=             -0.0000

  Exact polarizability:      12.749      -0.000       2.232      -0.000      -0.000       2.232
 Approx polarizability:      22.055      -0.000       2.165       0.000       0.000       2.165

 ******    2 imaginary frequencies (negative Signs) ******

                      1                      2                      3
                      A                      A                      A
 Frequencies --  -1012.5952               -47.9545              1097.4474
 Red. masses --      1.0580                 1.0536                 1.0332
 Frc consts  --      0.6391                 0.0014                 0.7332
 IR Inten    --     46.2493                 0.0378               128.5144

                      4
                      A
 Frequencies --   1097.4474
 Red. masses --      1.0332
 Frc consts  --      0.7332
 IR Inten    --    128.5144

 - Thermochemistry -
 -------------------
 Temperature   298.150 Kelvin.  Pressure   1.00000 Atm.
 Atom     1 has atomic number  1 and mass   1.00783

 Molecular mass:    21.01405 amu.
 Principal axes and moments of inertia in atomic units:
                           1         2         3
     Eigenvalues --     0.00000  98.61862  98.61862
           X            1.00000  -0.00000   0.00000
           Y            0.00000   1.00000   0.00000
           Z            0.00000   0.00000   1.00000
 This molecule is a prolate symmetric top.
 Rotational symmetry number  1.
 Rotational temperature (Kelvin)      0.87827
 Rotational constant (GHZ):          18.300207
    2 imaginary frequencies ignored.
 Zero-point vibrational energy      13128.4 (Joules/Mol)
                                    3.13776 (Kcal/Mol)
 Vibrational temperatures:   1578.98  1578.98
          (Kelvin)

 Zero-point correction=                           0.005000 (Hartree/Particle)
 Thermal correction to Energy=                    0.007411
 Thermal correction to Enthalpy=                  0.008355
 Thermal correction to Gibbs Free Energy=        -0.015467
 Sum of electronic and zero-point Energies=           -100.872277
 Sum of electronic and thermal Energies=              -100.869867
 Sum of electronic and thermal Enthalpies=            -100.868922
 Sum of electronic and thermal Free Energies=         -100.892745

                     E (Thermal)             CV                S
                      KCal/Mol        Cal/Mol-Kelvin    Cal/Mol-Kelvin
 Total                    4.651              5.532             50.139
 Electronic               0.000              0.000              1.377
 Translational            0.889              2.981             35.068
 Rotational               0.592              1.987             13.567
 Vibrational              3.169              0.564              0.126

 Normal termination of Gaussian 16 at Fri Aug 22 16:21:26 2025.
