 Gaussian 16, Revision C.01,
 Gaussian 16:  ES64L-G16RevC.01  3-Jul-2019

 -----------------------------------------
 # sp b3lyp/6-311g** Force nosymm scf=(qc)
 -----------------------------------------

 -------------------
 Title Card Required
 -------------------
 Symbolic Z-matrix:
 Charge =  0 Multiplicity = 2

                          Input orientation:
 ---------------------------------------------------------------------
 Center     Atomic      Atomic             Coordinates (Angstroms)
 Number     Number       Type             X           Y           Z
 ---------------------------------------------------------------------
      1          1           0        0.000000    0.000000    0.000000
      2          1           0       -1.750000    0.000000    0.000000
      3          9           0        0.800000    0.000000    0.000000
 ---------------------------------------------------------------------

 SCF Done:  E(UB3LYP) =  -100.949357033     a.u. after    6 cycles

 Alpha  occ. eigenvalues --  -24.63417  -1.22893  -0.56470  -0.40445  -0.40445
 Alpha  occ. eigenvalues --   -0.36075
 Alpha virt. eigenvalues --    0.10386   0.22961   0.43819   0.94330   0.94330
 Alpha virt. eigenvalues --    0.97395   1.19411   1.20271   1.20271   1.41103
 Alpha virt. eigenvalues --    1.41103   1.54703   2.02154   2.18555   2.62596

  Beta  occ. eigenvalues --  -24.63332  -1.22668  -0.55973  -0.40376  -0.40376
  Beta virt. eigenvalues --   -0.12251   0.12090   0.31964   0.45918   0.94366
  Beta virt. eigenvalues --    0.94366   0.97615   1.28368   1.35318   1.35318
  Beta virt. eigenvalues --    1.44924   1.44924   1.61382   2.08868   2.32736

 Mulliken charges and spin densities:
               1          2
     1  H    0.257035   0.010984
     2  H    0.015998   0.970975
     3  F   -0.273032   0.018041
 Sum of Mulliken charges =   0.00000   1.00000

 Dipole moment (field-independent basis, Debye):
    X=             -1.8716    Y=              0.0000    Z=             -0.0000  Tot=              1.8716
 Quadrupole moment (field-independent basis, Debye-Ang):
   XX=             -7.2521   YY=             -6.7043   ZZ=             -6.7043
   XY=              0.0000   XZ=             -0.0000   YZ=              0.0000

  Exact polarizability:       8.166      -0.000       2.519       0.000      -0.000       2.519
 Approx polarizability:       8.208      -0.000       2.517      -0.000      -0.000       2.517

 ******    2 imaginary frequencies (negative Signs) ******

                      1                      2                      3
                      A                      A                      A
 Frequencies --  -1947.0838             -1947.0838               460.5188
 Red. masses --      1.0295                 1.0295                 1.0532
 Frc consts  --      2.2996                 2.2996                 0.1316
 IR Inten    --    148.6253               148.6253                 0.0429

                      4
                      A
 Frequencies --   6323.1594
 Red. masses --      1.0584
 Frc consts  --     24.9317
 IR Inten    --    176.4545

 - Thermochemistry -
 -------------------
 Temperature   298.150 Kelvin.  Pressure   1.00000 Atm.
 Atom     1 has atomic number  1 and mass   1.00783

 Molecular mass:    21.01405 amu.
 Principal axes and moments of inertia in atomic units:
                           1         2         3
     Eigenvalues --     0.00000  23.76884  23.76884
           X            1.00000  -0.00000   0.00000
           Y            0.00000   1.00000   0.00000
           Z            0.00000   0.00000   1.00000
 This molecule is a prolate symmetric top.
 Rotational symmetry number  1.
 Rotational temperature (Kelvin)      3.64401
 Rotational constant (GHZ):          75.928880
    2 imaginary frequencies ignored.
 Zero-point vibrational energy      40575.4 (Joules/Mol)
                                    9.69775 (Kcal/Mol)
 Warning -- explicit consideration of   1 degrees of freedom as
           vibrations may cause significant error
 Vibrational temperatures:    662.58  9097.62
          (Kelvin)

 Zero-point correction=                           0.015454 (Hartree/Particle)
 Thermal correction to Energy=                    0.018070
 Thermal correction to Enthalpy=                  0.019014
 Thermal correction to Gibbs Free Energy=        -0.003769
 Sum of electronic and zero-point Energies=           -100.933903
 Sum of electronic and thermal Energies=              -100.931287
 Sum of electronic and thermal Enthalpies=            -100.930343
 Sum of electronic and thermal Free Energies=         -100.953126

                     E (Thermal)             CV                S
                      KCal/Mol        Cal/Mol-Kelvin    Cal/Mol-Kelvin
 Total                   11.339              6.306             47.950
 Electronic               0.000              0.000              1.377
 Translational            0.889              2.981             35.068
 Rotational               0.592              1.987             10.740
 Vibrational              9.858              1.338              0.765
 Vibration     1          0.818              1.338              0.765

 Normal termination of Gaussian 16 at Fri Aug 22 15:50:55 2025.
