 Gaussian 16, Revision C.01,
 Gaussian 16:  ES64L-G16RevC.01  3-Jul-2019

 -----------------------------------------
 # sp b3lyp/6-311g** Force nosymm scf=(qc)
 -----------------------------------------

 -------------------
 Title Card Required
 -------------------
 Symbolic Z-matrix:
 Charge =  0 Multiplicity = 2

                          Input orientation:
 ---------------------------------------------------------------------
 Center     Atomic      Atomic             Coordinates (Angstroms)
 Number     Number       Type             X           Y           Z
 ---------------------------------------------------------------------
      1          1           0        0.000000    0.000000    0.000000
      2          1           0       -2.200000    0.000000    0.000000
      3          9           0        2.350000    0.000000    0.000000
 ---------------------------------------------------------------------

 SCF Done:  E(UB3LYP) =  -100.779515924     a.u. after   19 cycles

 Alpha  occ. eigenvalues --  -24.70791  -1.17045  -0.49878  -0.41898  -0.41898
 Alpha  occ. eigenvalues --   -0.34750
 Alpha virt. eigenvalues --   -0.12958   0.24716   0.32314   0.89512   0.94121
 Alpha virt. eigenvalues --    0.94121   1.06378   1.23076   1.23076   1.26643
 Alpha virt. eigenvalues --    1.35576   1.35576   1.46213   2.12186   2.32001

  Beta  occ. eigenvalues --  -24.68040  -1.09242  -0.39162  -0.39162  -0.35804
  Beta virt. eigenvalues --   -0.22839  -0.11001   0.26354   0.33137   0.95196
  Beta virt. eigenvalues --    0.95399   0.95399   1.09112   1.22333   1.22333
  Beta virt. eigenvalues --    1.33470   1.38722   1.38722   1.44502   2.12316

 Mulliken charges and spin densities:
               1          2
     1  H    0.087425  -0.797963
     2  H    0.024391   0.929945
     3  F   -0.111816   0.868018
 Sum of Mulliken charges =  -0.00000   1.00000

 Dipole moment (field-independent basis, Debye):
    X=             -1.5865    Y=             -0.0000    Z=             -0.0000  Tot=              1.5865
 Quadrupole moment (field-independent basis, Debye-Ang):
   XX=             -8.6828   YY=             -7.6160   ZZ=             -7.6160
   XY=             -0.0000   XZ=             -0.0000   YZ=              0.0000

  Exact polarizability:      51.207      -0.000       2.018      -0.000       0.000       2.018
 Approx polarizability:      55.212       0.000       1.925       0.000       0.000       1.925

 ******    2 imaginary frequencies (negative Signs) ******

                      1                      2                      3
                      A                      A                      A
 Frequencies --  -1137.6834              -431.2438               458.5026
 Red. masses --      1.0142                 1.1009                 1.0172
 Frc consts  --      0.7734                 0.1206                 0.1260
 IR Inten    --     57.9767                44.0996                 5.3398

                      4
                      A
 Frequencies --    458.5026
 Red. masses --      1.0172
 Frc consts  --      0.1260
 IR Inten    --      5.3398

 - Thermochemistry -
 -------------------
 Temperature   298.150 Kelvin.  Pressure   1.00000 Atm.
 Atom     1 has atomic number  1 and mass   1.00783

 Molecular mass:    21.01405 amu.
 Principal axes and moments of inertia in atomic units:
                           1         2         3
     Eigenvalues --     0.00000  86.16618  86.16618
           X            1.00000  -0.00000   0.00000
           Y            0.00000   1.00000   0.00000
           Z            0.00000   0.00000   1.00000
 This molecule is a prolate symmetric top.
 Rotational symmetry number  1.
 Rotational temperature (Kelvin)      1.00520
 Rotational constant (GHZ):          20.944890
    2 imaginary frequencies ignored.
 Zero-point vibrational energy       5484.9 (Joules/Mol)
                                    1.31092 (Kcal/Mol)
 Warning -- explicit consideration of   2 degrees of freedom as
           vibrations may cause significant error
 Vibrational temperatures:    659.68   659.68
          (Kelvin)

 Zero-point correction=                           0.002089 (Hartree/Particle)
 Thermal correction to Energy=                    0.004963
 Thermal correction to Enthalpy=                  0.005907
 Thermal correction to Gibbs Free Energy=        -0.018460
 Sum of electronic and zero-point Energies=           -100.777427
 Sum of electronic and thermal Energies=              -100.774553
 Sum of electronic and thermal Enthalpies=            -100.773609
 Sum of electronic and thermal Free Energies=         -100.797976

                     E (Thermal)             CV                S
                      KCal/Mol        Cal/Mol-Kelvin    Cal/Mol-Kelvin
 Total                    3.114              7.652             51.286
 Electronic               0.000              0.000              1.377
 Translational            0.889              2.981             35.068
 Rotational               0.592              1.987             13.299
 Vibrational              1.633              2.684              1.541
 Vibration     1          0.817              1.342              0.770
 Vibration     2          0.817              1.342              0.770

 Normal termination of Gaussian 16 at Fri Aug 22 17:26:31 2025.
