 Gaussian 16, Revision C.01,
 Gaussian 16:  ES64L-G16RevC.01  3-Jul-2019

 -----------------------------------------
 # sp b3lyp/6-311g** Force nosymm scf=(qc)
 -----------------------------------------

 -------------------
 Title Card Required
 -------------------
 Symbolic Z-matrix:
 Charge =  0 Multiplicity = 2

                          Input orientation:
 ---------------------------------------------------------------------
 Center     Atomic      Atomic             Coordinates (Angstroms)
 Number     Number       Type             X           Y           Z
 ---------------------------------------------------------------------
      1          1           0        0.000000    0.000000    0.000000
      2          1           0       -2.150000    0.000000    0.000000
      3          9           0        3.750000    0.000000    0.000000
 ---------------------------------------------------------------------

 SCF Done:  E(UB3LYP) =  -100.768994460     a.u. after   57 cycles

 Alpha  occ. eigenvalues --  -24.75812  -1.21745  -0.54936  -0.46129  -0.46129
 Alpha  occ. eigenvalues --   -0.32826
 Alpha virt. eigenvalues --   -0.10453   0.25980   0.33277   0.86923   0.91204
 Alpha virt. eigenvalues --    0.91204   1.01260   1.22300   1.25060   1.25060
 Alpha virt. eigenvalues --    1.39125   1.39125   1.46604   2.13821   2.35498

  Beta  occ. eigenvalues --  -24.72674  -1.12723  -0.42983  -0.42983  -0.32925
  Beta virt. eigenvalues --   -0.25729  -0.10250   0.25829   0.33608   0.92700
  Beta virt. eigenvalues --    0.92700   0.96228   1.05364   1.22228   1.24946
  Beta virt. eigenvalues --    1.24946   1.39410   1.39410   1.46822   2.14119

 Mulliken charges and spin densities:
               1          2
     1  H    0.001493  -0.906539
     2  H    0.002871   0.911614
     3  F   -0.004364   0.994925
 Sum of Mulliken charges =   0.00000   1.00000

 Dipole moment (field-independent basis, Debye):
    X=             -0.1131    Y=             -0.0000    Z=              0.0000  Tot=              0.1131
 Quadrupole moment (field-independent basis, Debye-Ang):
   XX=             -6.5615   YY=             -7.7066   ZZ=             -7.7066
   XY=             -0.0000   XZ=              0.0000   YZ=              0.0000

  Exact polarizability:      32.118      -0.000       2.011       0.000      -0.000       2.011
 Approx polarizability:      26.663      -0.000       1.933       0.000      -0.000       1.933

 ******    2 imaginary frequencies (negative Signs) ******

                      1                      2                      3
                      A                      A                      A
 Frequencies --  -1097.1876               -98.5031               430.5456
 Red. masses --      1.0078                 1.1085                 1.0126
 Frc consts  --      0.7148                 0.0063                 0.1106
 IR Inten    --      2.3913                 2.2487                 0.0001

                      4
                      A
 Frequencies --    430.5456
 Red. masses --      1.0126
 Frc consts  --      0.1106
 IR Inten    --      0.0001

 - Thermochemistry -
 -------------------
 Temperature   298.150 Kelvin.  Pressure   1.00000 Atm.
 Atom     1 has atomic number  1 and mass   1.00783

 Molecular mass:    21.01405 amu.
 Principal axes and moments of inertia in atomic units:
                           1         2         3
     Eigenvalues --     0.00000 159.81896 159.81896
           X            1.00000  -0.00000   0.00000
           Y            0.00000   1.00000   0.00000
           Z            0.00000   0.00000   1.00000
 This molecule is a prolate symmetric top.
 Rotational symmetry number  1.
 Rotational temperature (Kelvin)      0.54195
 Rotational constant (GHZ):          11.292410
    2 imaginary frequencies ignored.
 Zero-point vibrational energy       5150.5 (Joules/Mol)
                                    1.23099 (Kcal/Mol)
 Warning -- explicit consideration of   2 degrees of freedom as
           vibrations may cause significant error
 Vibrational temperatures:    619.46   619.46
          (Kelvin)

 Zero-point correction=                           0.001962 (Hartree/Particle)
 Thermal correction to Energy=                    0.004884
 Thermal correction to Enthalpy=                  0.005828
 Thermal correction to Gibbs Free Energy=        -0.019205
 Sum of electronic and zero-point Energies=           -100.767033
 Sum of electronic and thermal Energies=              -100.764111
 Sum of electronic and thermal Enthalpies=            -100.763166
 Sum of electronic and thermal Free Energies=         -100.788199

                     E (Thermal)             CV                S
                      KCal/Mol        Cal/Mol-Kelvin    Cal/Mol-Kelvin
 Total                    3.065              7.775             52.686
 Electronic               0.000              0.000              1.377
 Translational            0.889              2.981             35.068
 Rotational               0.592              1.987             14.527
 Vibrational              1.583              2.807              1.714
 Vibration     1          0.792              1.404              0.857
 Vibration     2          0.792              1.404              0.857

 Normal termination of Gaussian 16 at Sat Aug 23 00:25:22 2025.
