 Gaussian 16, Revision C.01,
 Gaussian 16:  ES64L-G16RevC.01  3-Jul-2019

 -----------------------------------------
 # sp b3lyp/6-311g** Force nosymm scf=(qc)
 -----------------------------------------

 -------------------
 Title Card Required
 -------------------
 Symbolic Z-matrix:
 Charge =  0 Multiplicity = 2

                          Input orientation:
 ---------------------------------------------------------------------
 Center     Atomic      Atomic             Coordinates (Angstroms)
 Number     Number       Type             X           Y           Z
 ---------------------------------------------------------------------
      1          1           0        0.000000    0.000000    0.000000
      2          1           0       -2.000000    0.000000    0.000000
      3          9           0        0.700000    0.000000    0.000000
 ---------------------------------------------------------------------

 SCF Done:  E(UB3LYP) =  -100.874447764     a.u. after    6 cycles

 Alpha  occ. eigenvalues --  -24.63081  -1.28142  -0.58657  -0.41656  -0.41656
 Alpha  occ. eigenvalues --   -0.35322
 Alpha virt. eigenvalues --    0.10121   0.24317   0.50013   0.93571   0.93571
 Alpha virt. eigenvalues --    0.96102   1.17177   1.22072   1.22072   1.44271
 Alpha virt. eigenvalues --    1.44271   1.54704   1.97910   2.17550   2.87457

  Beta  occ. eigenvalues --  -24.63047  -1.28046  -0.58497  -0.41632  -0.41632
  Beta virt. eigenvalues --   -0.10463   0.11653   0.35225   0.50694   0.93571
  Beta virt. eigenvalues --    0.93571   0.96282   1.26849   1.41273   1.41273
  Beta virt. eigenvalues --    1.45183   1.45183   1.63358   2.00938   2.41826

 Mulliken charges and spin densities:
               1          2
     1  H    0.248251   0.009239
     2  H    0.009999   0.984138
     3  F   -0.258250   0.006623
 Sum of Mulliken charges =   0.00000   1.00000

 Dipole moment (field-independent basis, Debye):
    X=             -1.6756    Y=              0.0000    Z=             -0.0000  Tot=              1.6756
 Quadrupole moment (field-independent basis, Debye-Ang):
   XX=             -7.0212   YY=             -6.6302   ZZ=             -6.6302
   XY=              0.0000   XZ=             -0.0000   YZ=             -0.0000

  Exact polarizability:       6.520       0.000       2.499       0.000       0.000       2.499
 Approx polarizability:       6.460       0.000       2.491       0.000       0.000       2.491

 ******    2 imaginary frequencies (negative Signs) ******

                      1                      2                      3
                      A                      A                      A
 Frequencies --  -3501.2199             -3501.2199               336.6268
 Red. masses --      1.0338                 1.0338                 1.0533
 Frc consts  --      7.4668                 7.4668                 0.0703
 IR Inten    --    180.0577               180.0577                 0.1231

                      4
                      A
 Frequencies --   9069.1004
 Red. masses --      1.0583
 Frc consts  --     51.2836
 IR Inten    --    140.4084

 - Thermochemistry -
 -------------------
 Temperature   298.150 Kelvin.  Pressure   1.00000 Atm.
 Atom     1 has atomic number  1 and mass   1.00783

 Molecular mass:    21.01405 amu.
 Principal axes and moments of inertia in atomic units:
                           1         2         3
     Eigenvalues --     0.00000  26.00495  26.00495
           X            1.00000  -0.00000   0.00000
           Y            0.00000   1.00000   0.00000
           Z            0.00000   0.00000   1.00000
 This molecule is a prolate symmetric top.
 Rotational symmetry number  1.
 Rotational temperature (Kelvin)      3.33067
 Rotational constant (GHZ):          69.399909
    2 imaginary frequencies ignored.
 Zero-point vibrational energy      56258.7 (Joules/Mol)
                                   13.44616 (Kcal/Mol)
 Warning -- explicit consideration of   1 degrees of freedom as
           vibrations may cause significant error
 Vibrational temperatures:    484.33 13048.41
          (Kelvin)

 Zero-point correction=                           0.021428 (Hartree/Particle)
 Thermal correction to Energy=                    0.024165
 Thermal correction to Enthalpy=                  0.025109
 Thermal correction to Gibbs Free Energy=         0.002021
 Sum of electronic and zero-point Energies=           -100.853020
 Sum of electronic and thermal Energies=              -100.850283
 Sum of electronic and thermal Enthalpies=            -100.849339
 Sum of electronic and thermal Free Energies=         -100.872427

                     E (Thermal)             CV                S
                      KCal/Mol        Cal/Mol-Kelvin    Cal/Mol-Kelvin
 Total                   15.164              6.570             48.592
 Electronic               0.000              0.000              1.377
 Translational            0.889              2.981             35.068
 Rotational               0.592              1.987             10.919
 Vibrational             13.682              1.602              1.228
 Vibration     1          0.717              1.602              1.228

 Normal termination of Gaussian 16 at Fri Aug 22 15:46:25 2025.
