 Gaussian 16, Revision C.01,
 Gaussian 16:  ES64L-G16RevC.01  3-Jul-2019

 -----------------------------------------
 # sp b3lyp/6-311g** Force nosymm scf=(qc)
 -----------------------------------------

 -------------------
 Title Card Required
 -------------------
 Symbolic Z-matrix:
 Charge =  0 Multiplicity = 2

                          Input orientation:
 ---------------------------------------------------------------------
 Center     Atomic      Atomic             Coordinates (Angstroms)
 Number     Number       Type             X           Y           Z
 ---------------------------------------------------------------------
      1          1           0        0.000000    0.000000    0.000000
      2          1           0       -3.800000    0.000000    0.000000
      3          9           0        2.050000    0.000000    0.000000
 ---------------------------------------------------------------------

 SCF Done:  E(UB3LYP) =  -100.783963230     a.u. after   17 cycles

 Alpha  occ. eigenvalues --  -24.68642  -1.14966  -0.47647  -0.40114  -0.40114
 Alpha  occ. eigenvalues --   -0.33197
 Alpha virt. eigenvalues --   -0.13382   0.22523   0.32083   0.88477   0.94787
 Alpha virt. eigenvalues --    0.94787   1.05673   1.24309   1.24309   1.24321
 Alpha virt. eigenvalues --    1.35969   1.35969   1.58105   2.13759   2.30332

  Beta  occ. eigenvalues --  -24.66194  -1.08104  -0.37697  -0.37697  -0.37634
  Beta virt. eigenvalues --   -0.21074  -0.06465   0.22598   0.38045   0.90125
  Beta virt. eigenvalues --    0.95557   0.95557   1.08097   1.21731   1.21731
  Beta virt. eigenvalues --    1.46049   1.46389   1.46389   1.50418   2.11490

 Mulliken charges and spin densities:
               1          2
     1  H    0.179468  -0.769158
     2  H    0.000712   0.998920
     3  F   -0.180181   0.770239
 Sum of Mulliken charges =  -0.00000   1.00000

 Dipole moment (field-independent basis, Debye):
    X=             -1.8441    Y=              0.0000    Z=             -0.0000  Tot=              1.8441
 Quadrupole moment (field-independent basis, Debye-Ang):
   XX=            -10.0293   YY=             -7.4971   ZZ=             -7.4971
   XY=             -0.0000   XZ=              0.0000   YZ=              0.0000

  Exact polarizability:      25.657      -0.000       2.055       0.000       0.000       2.055
 Approx polarizability:      37.081      -0.000       1.941       0.000       0.000       1.941

 ******    2 imaginary frequencies (negative Signs) ******

                      1                      2                      3
                      A                      A                      A
 Frequencies --  -1051.2519               -84.1893               447.0653
 Red. masses --      1.0576                 1.0540                 1.0268
 Frc consts  --      0.6886                 0.0044                 0.1209
 IR Inten    --    118.3987                 0.0702                30.7220

                      4
                      A
 Frequencies --    447.0653
 Red. masses --      1.0268
 Frc consts  --      0.1209
 IR Inten    --     30.7220

 - Thermochemistry -
 -------------------
 Temperature   298.150 Kelvin.  Pressure   1.00000 Atm.
 Atom     1 has atomic number  1 and mass   1.00783

 Molecular mass:    21.01405 amu.
 Principal axes and moments of inertia in atomic units:
                           1         2         3
     Eigenvalues --     0.00000 127.51951 127.51951
           X            1.00000  -0.00000   0.00000
           Y            0.00000   1.00000   0.00000
           Z            0.00000   0.00000   1.00000
 This molecule is a prolate symmetric top.
 Rotational symmetry number  1.
 Rotational temperature (Kelvin)      0.67922
 Rotational constant (GHZ):          14.152668
    2 imaginary frequencies ignored.
 Zero-point vibrational energy       5348.1 (Joules/Mol)
                                    1.27822 (Kcal/Mol)
 Warning -- explicit consideration of   2 degrees of freedom as
           vibrations may cause significant error
 Vibrational temperatures:    643.23   643.23
          (Kelvin)

 Zero-point correction=                           0.002037 (Hartree/Particle)
 Thermal correction to Energy=                    0.004930
 Thermal correction to Enthalpy=                  0.005874
 Thermal correction to Gibbs Free Energy=        -0.018896
 Sum of electronic and zero-point Energies=           -100.781926
 Sum of electronic and thermal Energies=              -100.779033
 Sum of electronic and thermal Enthalpies=            -100.778089
 Sum of electronic and thermal Free Energies=         -100.802859

                     E (Thermal)             CV                S
                      KCal/Mol        Cal/Mol-Kelvin    Cal/Mol-Kelvin
 Total                    3.094              7.703             52.133
 Electronic               0.000              0.000              1.377
 Translational            0.889              2.981             35.068
 Rotational               0.592              1.987             14.078
 Vibrational              1.612              2.735              1.609
 Vibration     1          0.806              1.367              0.805
 Vibration     2          0.806              1.367              0.805

 Normal termination of Gaussian 16 at Fri Aug 22 17:01:54 2025.
