 Gaussian 16, Revision C.01,
 Gaussian 16:  ES64L-G16RevC.01  3-Jul-2019

 -----------------------------------------
 # sp b3lyp/6-311g** Force nosymm scf=(qc)
 -----------------------------------------

 -------------------
 Title Card Required
 -------------------
 Symbolic Z-matrix:
 Charge =  0 Multiplicity = 2

                          Input orientation:
 ---------------------------------------------------------------------
 Center     Atomic      Atomic             Coordinates (Angstroms)
 Number     Number       Type             X           Y           Z
 ---------------------------------------------------------------------
      1          1           0        0.000000    0.000000    0.000000
      2          1           0       -3.100000    0.000000    0.000000
      3          9           0        0.850000    0.000000    0.000000
 ---------------------------------------------------------------------

 SCF Done:  E(UB3LYP) =  -100.965571241     a.u. after    6 cycles

 Alpha  occ. eigenvalues --  -24.63841  -1.20890  -0.55003  -0.40121  -0.40121
 Alpha  occ. eigenvalues --   -0.33924
 Alpha virt. eigenvalues --    0.04412   0.25138   0.42452   0.94350   0.94350
 Alpha virt. eigenvalues --    0.97401   1.22851   1.23601   1.23601   1.31829
 Alpha virt. eigenvalues --    1.38373   1.38373   2.03356   2.14666   2.42937

  Beta  occ. eigenvalues --  -24.63838  -1.20882  -0.54994  -0.40119  -0.40119
  Beta virt. eigenvalues --   -0.06421   0.05393   0.39099   0.42492   0.94351
  Beta virt. eigenvalues --    0.94351   0.97388   1.30129   1.38372   1.38372
  Beta virt. eigenvalues --    1.50271   1.50271   1.50553   2.03458   2.42746

 Mulliken charges and spin densities:
               1          2
     1  H    0.283167   0.001233
     2  H    0.001832   0.997573
     3  F   -0.285000   0.001194
 Sum of Mulliken charges =   0.00000   1.00000

 Dipole moment (field-independent basis, Debye):
    X=             -1.8350    Y=              0.0000    Z=             -0.0000  Tot=              1.8350
 Quadrupole moment (field-independent basis, Debye-Ang):
   XX=             -7.6900   YY=             -6.8191   ZZ=             -6.8191
   XY=              0.0000   XZ=             -0.0000   YZ=              0.0000

  Exact polarizability:       5.627      -0.000       2.443       0.000      -0.000       2.443
 Approx polarizability:       6.276      -0.000       2.424       0.000      -0.000       2.424

 ******    3 imaginary frequencies (negative Signs) ******

                      1                      2                      3
                      A                      A                      A
 Frequencies --  -1321.0153             -1321.0153               -52.6156
 Red. masses --      1.0376                 1.0376                 1.0532
 Frc consts  --      1.0668                 1.0668                 0.0017
 IR Inten    --    184.8120               184.8120                 0.1156

                      4
                      A
 Frequencies --   5310.8135
 Red. masses --      1.0583
 Frc consts  --     17.5870
 IR Inten    --    109.1239

 - Thermochemistry -
 -------------------
 Temperature   298.150 Kelvin.  Pressure   1.00000 Atm.
 Atom     1 has atomic number  1 and mass   1.00783

 Molecular mass:    21.01405 amu.
 Principal axes and moments of inertia in atomic units:
                           1         2         3
     Eigenvalues --     0.00000  54.77695  54.77695
           X            1.00000  -0.00000   0.00000
           Y            0.00000   1.00000   0.00000
           Z            0.00000   0.00000   1.00000
 This molecule is a prolate symmetric top.
 Rotational symmetry number  1.
 Rotational temperature (Kelvin)      1.58121
 Rotational constant (GHZ):          32.947091
    3 imaginary frequencies ignored.
 Zero-point vibrational energy      31765.7 (Joules/Mol)
                                    7.59219 (Kcal/Mol)
 Vibrational temperatures:   7641.08
          (Kelvin)

 Zero-point correction=                           0.012099 (Hartree/Particle)
 Thermal correction to Energy=                    0.014459
 Thermal correction to Enthalpy=                  0.015404
 Thermal correction to Gibbs Free Energy=        -0.007804
 Sum of electronic and zero-point Energies=           -100.953472
 Sum of electronic and thermal Energies=              -100.951112
 Sum of electronic and thermal Enthalpies=            -100.950168
 Sum of electronic and thermal Free Energies=         -100.973375

                     E (Thermal)             CV                S
                      KCal/Mol        Cal/Mol-Kelvin    Cal/Mol-Kelvin
 Total                    9.073              4.968             48.844
 Electronic               0.000              0.000              1.377
 Translational            0.889              2.981             35.068
 Rotational               0.592              1.987             12.399
 Vibrational              7.592              0.000              0.000

 Normal termination of Gaussian 16 at Fri Aug 22 15:54:10 2025.
