 Gaussian 16, Revision C.01,
 Gaussian 16:  ES64L-G16RevC.01  3-Jul-2019

 -----------------------------------------
 # sp b3lyp/6-311g** Force nosymm scf=(qc)
 -----------------------------------------

 -------------------
 Title Card Required
 -------------------
 Symbolic Z-matrix:
 Charge =  0 Multiplicity = 2

                          Input orientation:
 ---------------------------------------------------------------------
 Center     Atomic      Atomic             Coordinates (Angstroms)
 Number     Number       Type             X           Y           Z
 ---------------------------------------------------------------------
      1          1           0        0.000000    0.000000    0.000000
      2          1           0       -2.100000    0.000000    0.000000
      3          9           0        3.350000    0.000000    0.000000
 ---------------------------------------------------------------------

 SCF Done:  E(UB3LYP) =  -100.771121232     a.u. after   31 cycles

 Alpha  occ. eigenvalues --  -24.75279  -1.21249  -0.54400  -0.45678  -0.45678
 Alpha  occ. eigenvalues --   -0.33130
 Alpha virt. eigenvalues --   -0.10973   0.25806   0.32599   0.88150   0.91539
 Alpha virt. eigenvalues --    0.91539   1.02206   1.20573   1.24793   1.24793
 Alpha virt. eigenvalues --    1.38235   1.38235   1.47516   2.13255   2.35880

  Beta  occ. eigenvalues --  -24.72176  -1.12336  -0.42569  -0.42569  -0.33283
  Beta virt. eigenvalues --   -0.25469  -0.10564   0.25761   0.33203   0.93024
  Beta virt. eigenvalues --    0.93024   0.97227   1.06218   1.20446   1.24587
  Beta virt. eigenvalues --    1.24587   1.38842   1.38842   1.47994   2.14062

 Mulliken charges and spin densities:
               1          2
     1  H    0.007362  -0.881266
     2  H    0.006927   0.897582
     3  F   -0.014289   0.983684
 Sum of Mulliken charges =   0.00000   1.00000

 Dipole moment (field-independent basis, Debye):
    X=             -0.3146    Y=             -0.0000    Z=              0.0000  Tot=              0.3146
 Quadrupole moment (field-independent basis, Debye-Ang):
   XX=             -6.9283   YY=             -7.7092   ZZ=             -7.7092
   XY=             -0.0000   XZ=              0.0000   YZ=             -0.0000

  Exact polarizability:      47.258      -0.000       2.013       0.000       0.000       2.013
 Approx polarizability:      38.895      -0.000       1.931       0.000       0.000       1.931

 ******    2 imaginary frequencies (negative Signs) ******

                      1                      2                      3
                      A                      A                      A
 Frequencies --  -1184.4995              -164.3164               467.0464
 Red. masses --      1.0079                 1.1084                 1.0133
 Frc consts  --      0.8332                 0.0176                 0.1302
 IR Inten    --     13.8454                11.6699                 0.0173

                      4
                      A
 Frequencies --    467.0464
 Red. masses --      1.0133
 Frc consts  --      0.1302
 IR Inten    --      0.0173

 - Thermochemistry -
 -------------------
 Temperature   298.150 Kelvin.  Pressure   1.00000 Atm.
 Atom     1 has atomic number  1 and mass   1.00783

 Molecular mass:    21.01405 amu.
 Principal axes and moments of inertia in atomic units:
                           1         2         3
     Eigenvalues --     0.00000 133.92275 133.92275
           X            1.00000  -0.00000   0.00000
           Y            0.00000   1.00000   0.00000
           Z            0.00000   0.00000   1.00000
 This molecule is a prolate symmetric top.
 Rotational symmetry number  1.
 Rotational temperature (Kelvin)      0.64675
 Rotational constant (GHZ):          13.475987
    2 imaginary frequencies ignored.
 Zero-point vibrational energy       5587.1 (Joules/Mol)
                                    1.33535 (Kcal/Mol)
 Warning -- explicit consideration of   2 degrees of freedom as
           vibrations may cause significant error
 Vibrational temperatures:    671.98   671.98
          (Kelvin)

 Zero-point correction=                           0.002128 (Hartree/Particle)
 Thermal correction to Energy=                    0.004988
 Thermal correction to Enthalpy=                  0.005932
 Thermal correction to Gibbs Free Energy=        -0.018828
 Sum of electronic and zero-point Energies=           -100.768993
 Sum of electronic and thermal Energies=              -100.766133
 Sum of electronic and thermal Enthalpies=            -100.765189
 Sum of electronic and thermal Free Energies=         -100.789950

                     E (Thermal)             CV                S
                      KCal/Mol        Cal/Mol-Kelvin    Cal/Mol-Kelvin
 Total                    3.130              7.614             52.113
 Electronic               0.000              0.000              1.377
 Translational            0.889              2.981             35.068
 Rotational               0.592              1.987             14.176
 Vibrational              1.649              2.646              1.492
 Vibration     1          0.824              1.323              0.746
 Vibration     2          0.824              1.323              0.746

 Normal termination of Gaussian 16 at Fri Aug 22 21:01:23 2025.
