 Gaussian 16, Revision C.01,
 Gaussian 16:  ES64L-G16RevC.01  3-Jul-2019

 -----------------------------------------
 # sp b3lyp/6-311g** Force nosymm scf=(qc)
 -----------------------------------------

 -------------------
 Title Card Required
 -------------------
 Symbolic Z-matrix:
 Charge =  0 Multiplicity = 2

                          Input orientation:
 ---------------------------------------------------------------------
 Center     Atomic      Atomic             Coordinates (Angstroms)
 Number     Number       Type             X           Y           Z
 ---------------------------------------------------------------------
      1          1           0        0.000000    0.000000    0.000000
      2          1           0       -3.450000    0.000000    0.000000
      3          9           0        1.100000    0.000000    0.000000
 ---------------------------------------------------------------------

 SCF Done:  E(UB3LYP) =  -100.948446870     a.u. after    6 cycles

 Alpha  occ. eigenvalues --  -24.64289  -1.13862  -0.49608  -0.38096  -0.38096
 Alpha  occ. eigenvalues --   -0.33821
 Alpha virt. eigenvalues --   -0.02455   0.23233   0.31292   0.93575   0.93575
 Alpha virt. eigenvalues --    0.99605   1.23619   1.23695   1.23695   1.28836
 Alpha virt. eigenvalues --    1.35221   1.35221   1.79641   2.14036   2.31825

  Beta  occ. eigenvalues --  -24.64286  -1.13854  -0.49599  -0.38094  -0.38094
  Beta virt. eigenvalues --   -0.06697  -0.01545   0.29604   0.38994   0.93575
  Beta virt. eigenvalues --    0.93575   0.99612   1.28720   1.35217   1.35217
  Beta virt. eigenvalues --    1.48847   1.48847   1.49067   1.79671   2.31586

 Mulliken charges and spin densities:
               1          2
     1  H    0.340040   0.000414
     2  H    0.001240   0.998576
     3  F   -0.341280   0.001010
 Sum of Mulliken charges =   0.00000   1.00000

 Dipole moment (field-independent basis, Debye):
    X=             -2.1742    Y=             -0.0000    Z=             -0.0000  Tot=              2.1742
 Quadrupole moment (field-independent basis, Debye-Ang):
   XX=             -8.5315   YY=             -7.0485   ZZ=             -7.0485
   XY=             -0.0000   XZ=              0.0000   YZ=              0.0000

  Exact polarizability:       8.107       0.000       2.365       0.000      -0.000       2.365
 Approx polarizability:      10.573       0.000       2.329       0.000       0.000       2.329

 ******    1 imaginary frequencies (negative Signs) ******

                      1                      2                      3
                      A                      A                      A
 Frequencies --    -55.7080              1183.7822              1183.7822
 Red. masses --      1.0531                 1.0353                 1.0353
 Frc consts  --      0.0019                 0.8548                 0.8548
 IR Inten    --      0.0884               156.7234               156.7234

                      4
                      A
 Frequencies --   1939.4939
 Red. masses --      1.0584
 Frc consts  --      2.3458
 IR Inten    --     79.3060

 - Thermochemistry -
 -------------------
 Temperature   298.150 Kelvin.  Pressure   1.00000 Atm.
 Atom     1 has atomic number  1 and mass   1.00783

 Molecular mass:    21.01405 amu.
 Principal axes and moments of inertia in atomic units:
                           1         2         3
     Eigenvalues --     0.00000  73.35323  73.35323
           X            1.00000  -0.00000   0.00000
           Y            0.00000   1.00000   0.00000
           Z            0.00000   0.00000   1.00000
 This molecule is a prolate symmetric top.
 Rotational symmetry number  1.
 Rotational temperature (Kelvin)      1.18078
 Rotational constant (GHZ):          24.603432
    1 imaginary frequencies ignored.
 Zero-point vibrational energy      25761.9 (Joules/Mol)
                                    6.15725 (Kcal/Mol)
 Vibrational temperatures:   1703.20  1703.20  2790.50
          (Kelvin)

 Zero-point correction=                           0.009812 (Hartree/Particle)
 Thermal correction to Energy=                    0.012209
 Thermal correction to Enthalpy=                  0.013153
 Thermal correction to Gibbs Free Energy=        -0.010373
 Sum of electronic and zero-point Energies=           -100.938635
 Sum of electronic and thermal Energies=              -100.936238
 Sum of electronic and thermal Enthalpies=            -100.935293
 Sum of electronic and thermal Free Energies=         -100.958820

                     E (Thermal)             CV                S
                      KCal/Mol        Cal/Mol-Kelvin    Cal/Mol-Kelvin
 Total                    7.661              5.414             49.515
 Electronic               0.000              0.000              1.377
 Translational            0.889              2.981             35.068
 Rotational               0.592              1.987             12.979
 Vibrational              6.180              0.446              0.090

 Normal termination of Gaussian 16 at Fri Aug 22 16:06:17 2025.
