 Gaussian 16, Revision C.01,
 Gaussian 16:  ES64L-G16RevC.01  3-Jul-2019

 -----------------------------------------
 # sp b3lyp/6-311g** Force nosymm scf=(qc)
 -----------------------------------------

 -------------------
 Title Card Required
 -------------------
 Symbolic Z-matrix:
 Charge =  0 Multiplicity = 2

                          Input orientation:
 ---------------------------------------------------------------------
 Center     Atomic      Atomic             Coordinates (Angstroms)
 Number     Number       Type             X           Y           Z
 ---------------------------------------------------------------------
      1          1           0        0.000000    0.000000    0.000000
      2          1           0       -2.700000    0.000000    0.000000
      3          9           0        1.250000    0.000000    0.000000
 ---------------------------------------------------------------------

 SCF Done:  E(UB3LYP) =  -100.913932333     a.u. after    6 cycles

 Alpha  occ. eigenvalues --  -24.64221  -1.11543  -0.46832  -0.37165  -0.37165
 Alpha  occ. eigenvalues --   -0.34965
 Alpha virt. eigenvalues --   -0.06836   0.23794   0.27926   0.93176   0.93176
 Alpha virt. eigenvalues --    1.01518   1.21561   1.22567   1.22567   1.27761
 Alpha virt. eigenvalues --    1.34405   1.34405   1.72241   2.13779   2.27416

  Beta  occ. eigenvalues --  -24.64186  -1.11454  -0.46701  -0.37133  -0.37133
  Beta virt. eigenvalues --   -0.11128  -0.04111   0.27158   0.36869   0.93173
  Beta virt. eigenvalues --    0.93173   1.01599   1.25330   1.34321   1.34321
  Beta virt. eigenvalues --    1.44329   1.44329   1.44810   1.72564   2.27265

 Mulliken charges and spin densities:
               1          2
     1  H    0.351377  -0.001566
     2  H    0.007746   0.990720
     3  F   -0.359123   0.010845
 Sum of Mulliken charges =  -0.00000   1.00000

 Dipole moment (field-independent basis, Debye):
    X=             -2.4429    Y=              0.0000    Z=              0.0000  Tot=              2.4429
 Quadrupole moment (field-independent basis, Debye-Ang):
   XX=             -8.7753   YY=             -7.1633   ZZ=             -7.1633
   XY=              0.0000   XZ=              0.0000   YZ=             -0.0000

  Exact polarizability:      12.928       0.000       2.317       0.000       0.000       2.317
 Approx polarizability:      17.607      -0.000       2.269       0.000       0.000       2.269

 ******    1 imaginary frequencies (negative Signs) ******

                      1                      2                      3
                      A                      A                      A
 Frequencies --   -194.9539               362.2942              1169.5549
 Red. masses --      1.0259                 1.0874                 1.0293
 Frc consts  --      0.0230                 0.0841                 0.8295
 IR Inten    --     18.1287                84.8715               130.3099

                      4
                      A
 Frequencies --   1169.5549
 Red. masses --      1.0293
 Frc consts  --      0.8295
 IR Inten    --    130.3099

 - Thermochemistry -
 -------------------
 Temperature   298.150 Kelvin.  Pressure   1.00000 Atm.
 Atom     1 has atomic number  1 and mass   1.00783

 Molecular mass:    21.01405 amu.
 Principal axes and moments of inertia in atomic units:
                           1         2         3
     Eigenvalues --     0.00000  57.10969  57.10969
           X            1.00000  -0.00000   0.00000
           Y            0.00000   1.00000   0.00000
           Z            0.00000   0.00000   1.00000
 This molecule is a prolate symmetric top.
 Rotational symmetry number  1.
 Rotational temperature (Kelvin)      1.51662
 Rotational constant (GHZ):          31.601313
    1 imaginary frequencies ignored.
 Zero-point vibrational energy      16158.0 (Joules/Mol)
                                    3.86185 (Kcal/Mol)
 Warning -- explicit consideration of   1 degrees of freedom as
           vibrations may cause significant error
 Vibrational temperatures:    521.26  1682.73  1682.73
          (Kelvin)

 Zero-point correction=                           0.006154 (Hartree/Particle)
 Thermal correction to Energy=                    0.008900
 Thermal correction to Enthalpy=                  0.009845
 Thermal correction to Gibbs Free Energy=        -0.013975
 Sum of electronic and zero-point Energies=           -100.907778
 Sum of electronic and thermal Energies=              -100.905032
 Sum of electronic and thermal Enthalpies=            -100.904088
 Sum of electronic and thermal Free Energies=         -100.927908

                     E (Thermal)             CV                S
                      KCal/Mol        Cal/Mol-Kelvin    Cal/Mol-Kelvin
 Total                    5.585              6.969             50.133
 Electronic               0.000              0.000              1.377
 Translational            0.889              2.981             35.068
 Rotational               0.592              1.987             12.482
 Vibrational              4.104              2.001              1.206
 Vibration     1          0.736              1.550              1.112

 Normal termination of Gaussian 16 at Fri Aug 22 16:13:04 2025.
