 Gaussian 16, Revision C.01,
 Gaussian 16:  ES64L-G16RevC.01  3-Jul-2019

 -----------------------------------------
 # sp b3lyp/6-311g** Force nosymm scf=(qc)
 -----------------------------------------

 -------------------
 Title Card Required
 -------------------
 Symbolic Z-matrix:
 Charge =  0 Multiplicity = 2

                          Input orientation:
 ---------------------------------------------------------------------
 Center     Atomic      Atomic             Coordinates (Angstroms)
 Number     Number       Type             X           Y           Z
 ---------------------------------------------------------------------
      1          1           0        0.000000    0.000000    0.000000
      2          1           0       -3.150000    0.000000    0.000000
      3          9           0        3.600000    0.000000    0.000000
 ---------------------------------------------------------------------

 SCF Done:  E(UB3LYP) =  -100.759460830     a.u. after   32 cycles

 Alpha  occ. eigenvalues --  -24.75546  -1.21498  -0.54670  -0.45901  -0.45901
 Alpha  occ. eigenvalues --   -0.32376
 Alpha virt. eigenvalues --   -0.07581   0.24748   0.36519   0.87315   0.91380
 Alpha virt. eigenvalues --    0.91380   1.01581   1.25146   1.25146   1.25618
 Alpha virt. eigenvalues --    1.44397   1.44550   1.44550   2.15547   2.40062

  Beta  occ. eigenvalues --  -24.72422  -1.12519  -0.42770  -0.42770  -0.32748
  Beta virt. eigenvalues --   -0.25567  -0.07137   0.24533   0.37229   0.92873
  Beta virt. eigenvalues --    0.92873   0.96524   1.05631   1.24722   1.24722
  Beta virt. eigenvalues --    1.25166   1.45089   1.45256   1.45256   2.15747

 Mulliken charges and spin densities:
               1          2
     1  H    0.008210  -0.985379
     2  H    0.000369   0.994870
     3  F   -0.008579   0.990509
 Sum of Mulliken charges =  -0.00000   1.00000

 Dipole moment (field-independent basis, Debye):
    X=             -0.1646    Y=             -0.0000    Z=              0.0000  Tot=              0.1646
 Quadrupole moment (field-independent basis, Debye-Ang):
   XX=             -7.2112   YY=             -7.6302   ZZ=             -7.6302
   XY=             -0.0000   XZ=              0.0000   YZ=             -0.0000

  Exact polarizability:      22.407      -0.000       2.043      -0.000      -0.000       2.043
 Approx polarizability:      17.007      -0.000       1.933       0.000       0.000       1.933

 ******    2 imaginary frequencies (negative Signs) ******

                      1                      2                      3
                      A                      A                      A
 Frequencies --   -301.8955              -114.7110                96.5570
 Red. masses --      1.0119                 1.1036                 1.0164
 Frc consts  --      0.0543                 0.0086                 0.0056
 IR Inten    --      5.4842                 2.6025                 0.0480

                      4
                      A
 Frequencies --     96.5573
 Red. masses --      1.0164
 Frc consts  --      0.0056
 IR Inten    --      0.0480

 - Thermochemistry -
 -------------------
 Temperature   298.150 Kelvin.  Pressure   1.00000 Atm.
 Atom     1 has atomic number  1 and mass   1.00783

 Molecular mass:    21.01405 amu.
 Principal axes and moments of inertia in atomic units:
                           1         2         3
     Eigenvalues --     0.00000 192.13289 192.13289
           X            1.00000  -0.00000   0.00000
           Y            0.00000   1.00000   0.00000
           Z            0.00000   0.00000   1.00000
 This molecule is a prolate symmetric top.
 Rotational symmetry number  1.
 Rotational temperature (Kelvin)      0.45080
 Rotational constant (GHZ):           9.393192
    2 imaginary frequencies ignored.
 Zero-point vibrational energy       1155.1 (Joules/Mol)
                                    0.27607 (Kcal/Mol)
 Warning -- explicit consideration of   2 degrees of freedom as
           vibrations may cause significant error
 Vibrational temperatures:    138.92   138.92
          (Kelvin)

 Zero-point correction=                           0.000440 (Hartree/Particle)
 Thermal correction to Energy=                    0.004283
 Thermal correction to Enthalpy=                  0.005227
 Thermal correction to Gibbs Free Energy=        -0.022513
 Sum of electronic and zero-point Energies=           -100.759021
 Sum of electronic and thermal Energies=              -100.755178
 Sum of electronic and thermal Enthalpies=            -100.754234
 Sum of electronic and thermal Free Energies=         -100.781974

                     E (Thermal)             CV                S
                      KCal/Mol        Cal/Mol-Kelvin    Cal/Mol-Kelvin
 Total                    2.688              8.871             58.383
 Electronic               0.000              0.000              1.377
 Translational            0.889              2.981             35.068
 Rotational               0.592              1.987             14.893
 Vibrational              1.206              3.903              7.045
 Vibration     1          0.603              1.952              3.523
 Vibration     2          0.603              1.952              3.523

 Normal termination of Gaussian 16 at Fri Aug 22 23:07:22 2025.
