 Gaussian 16, Revision C.01,
 Gaussian 16:  ES64L-G16RevC.01  3-Jul-2019

 -----------------------------------------
 # sp b3lyp/6-311g** Force nosymm scf=(qc)
 -----------------------------------------

 -------------------
 Title Card Required
 -------------------
 Symbolic Z-matrix:
 Charge =  0 Multiplicity = 2

                          Input orientation:
 ---------------------------------------------------------------------
 Center     Atomic      Atomic             Coordinates (Angstroms)
 Number     Number       Type             X           Y           Z
 ---------------------------------------------------------------------
      1          1           0        0.000000    0.000000    0.000000
      2          1           0       -2.550000    0.000000    0.000000
      3          9           0        2.900000    0.000000    0.000000
 ---------------------------------------------------------------------

 SCF Done:  E(UB3LYP) =  -100.765100688     a.u. after   23 cycles

 Alpha  occ. eigenvalues --  -24.73762  -1.19842  -0.52878  -0.44401  -0.44401
 Alpha  occ. eigenvalues --   -0.33137
 Alpha virt. eigenvalues --   -0.10550   0.25223   0.33632   0.89859   0.92472
 Alpha virt. eigenvalues --    0.92472   1.04571   1.24496   1.24496   1.26481
 Alpha virt. eigenvalues --    1.39889   1.39889   1.41569   2.15395   2.36493

  Beta  occ. eigenvalues --  -24.70759  -1.11243  -0.41396  -0.41396  -0.34039
  Beta virt. eigenvalues --   -0.24604  -0.09122   0.25507   0.35012   0.93925
  Beta virt. eigenvalues --    0.93925   0.98478   1.08411   1.23431   1.23431
  Beta virt. eigenvalues --    1.25441   1.42196   1.42196   1.43571   2.16208

 Mulliken charges and spin densities:
               1          2
     1  H    0.037965  -0.925837
     2  H    0.005789   0.974595
     3  F   -0.043755   0.951242
 Sum of Mulliken charges =   0.00000   1.00000

 Dipole moment (field-independent basis, Debye):
    X=             -0.7212    Y=              0.0000    Z=              0.0000  Tot=              0.7212
 Quadrupole moment (field-independent basis, Debye-Ang):
   XX=             -8.1590   YY=             -7.6426   ZZ=             -7.6426
   XY=              0.0000   XZ=              0.0000   YZ=             -0.0000

  Exact polarizability:      43.258       0.000       2.014       0.000      -0.000       2.014
 Approx polarizability:      40.918       0.000       1.921       0.000      -0.000       1.921

 ******    2 imaginary frequencies (negative Signs) ******

                      1                      2                      3
                      A                      A                      A
 Frequencies --   -677.6000              -252.5744               255.5211
 Red. masses --      1.0119                 1.1036                 1.0165
 Frc consts  --      0.2737                 0.0415                 0.0391
 IR Inten    --     29.0101                19.8723                 1.1566

                      4
                      A
 Frequencies --    255.5211
 Red. masses --      1.0165
 Frc consts  --      0.0391
 IR Inten    --      1.1566

 - Thermochemistry -
 -------------------
 Temperature   298.150 Kelvin.  Pressure   1.00000 Atm.
 Atom     1 has atomic number  1 and mass   1.00783

 Molecular mass:    21.01405 amu.
 Principal axes and moments of inertia in atomic units:
                           1         2         3
     Eigenvalues --     0.00000 125.13263 125.13263
           X            1.00000  -0.00000   0.00000
           Y            0.00000   1.00000   0.00000
           Z            0.00000   0.00000   1.00000
 This molecule is a prolate symmetric top.
 Rotational symmetry number  1.
 Rotational temperature (Kelvin)      0.69218
 Rotational constant (GHZ):          14.422627
    2 imaginary frequencies ignored.
 Zero-point vibrational energy       3056.7 (Joules/Mol)
                                    0.73057 (Kcal/Mol)
 Warning -- explicit consideration of   2 degrees of freedom as
           vibrations may cause significant error
 Vibrational temperatures:    367.64   367.64
          (Kelvin)

 Zero-point correction=                           0.001164 (Hartree/Particle)
 Thermal correction to Energy=                    0.004482
 Thermal correction to Enthalpy=                  0.005426
 Thermal correction to Gibbs Free Energy=        -0.020169
 Sum of electronic and zero-point Energies=           -100.763936
 Sum of electronic and thermal Energies=              -100.760618
 Sum of electronic and thermal Enthalpies=            -100.759674
 Sum of electronic and thermal Free Energies=         -100.785270

                     E (Thermal)             CV                S
                      KCal/Mol        Cal/Mol-Kelvin    Cal/Mol-Kelvin
 Total                    2.813              8.475             53.870
 Electronic               0.000              0.000              1.377
 Translational            0.889              2.981             35.068
 Rotational               0.592              1.987             14.041
 Vibrational              1.331              3.507              3.384
 Vibration     1          0.666              1.753              1.692
 Vibration     2          0.666              1.753              1.692

 Normal termination of Gaussian 16 at Fri Aug 22 19:03:47 2025.
