 Gaussian 16, Revision C.01,
 Gaussian 16:  ES64L-G16RevC.01  3-Jul-2019

 -----------------------------------------
 # sp b3lyp/6-311g** Force nosymm scf=(qc)
 -----------------------------------------

 -------------------
 Title Card Required
 -------------------
 Symbolic Z-matrix:
 Charge =  0 Multiplicity = 2

                          Input orientation:
 ---------------------------------------------------------------------
 Center     Atomic      Atomic             Coordinates (Angstroms)
 Number     Number       Type             X           Y           Z
 ---------------------------------------------------------------------
      1          1           0        0.000000    0.000000    0.000000
      2          1           0       -0.550000    0.000000    0.000000
      3          9           0        3.750000    0.000000    0.000000
 ---------------------------------------------------------------------

 SCF Done:  E(UB3LYP) =  -100.894058146     a.u. after  193 cycles

 Alpha  occ. eigenvalues --  -24.76235  -1.22109  -0.55312  -0.47907  -0.46482
 Alpha  occ. eigenvalues --   -0.46466
 Alpha virt. eigenvalues --    0.09208   0.18590   0.53672   0.86079   0.90955
 Alpha virt. eigenvalues --    0.92513   1.01610   1.11058   1.11061   1.61118
 Alpha virt. eigenvalues --    1.81896   1.96182   1.96185   2.36475   3.64913

  Beta  occ. eigenvalues --  -24.73078  -1.13032  -0.47902  -0.43321  -0.43301
  Beta virt. eigenvalues --   -0.25955   0.09223   0.18597   0.53728   0.92455
  Beta virt. eigenvalues --    0.94013   0.95543   1.05685   1.11058   1.11061
  Beta virt. eigenvalues --    1.61123   1.81914   1.96182   1.96185   2.36476

 Mulliken charges and spin densities:
               1          2
     1  H   -0.001420  -0.000395
     2  H   -0.001347   0.000090
     3  F    0.002767   1.000306
 Sum of Mulliken charges =   0.00000   1.00000

 Dipole moment (field-independent basis, Debye):
    X=              0.0334    Y=             -0.0000    Z=             -0.0000  Tot=              0.0334
 Quadrupole moment (field-independent basis, Debye-Ang):
   XX=             -6.1747   YY=             -6.5489   ZZ=             -5.9131
   XY=              0.0000   XZ=              0.0000   YZ=              0.2928

  Exact polarizability:       5.834       0.000       1.895       0.000       0.158       2.238
 Approx polarizability:       6.265       0.000       1.993       0.000       0.197       2.421

 ******    3 imaginary frequencies (negative Signs) ******

                      1                      2                      3
                      A                      A                      A
 Frequencies --  -3699.3206             -3698.6287               -47.9794
 Red. masses --      1.0083                 1.0083                 1.1085
 Frc consts  --      8.1298                 8.1268                 0.0015
 IR Inten    --      0.0020                 0.0016                 0.0874

                      4
                      A
 Frequencies --   8343.1828
 Red. masses --      1.0078
 Frc consts  --     41.3332
 IR Inten    --      0.0323

 - Thermochemistry -
 -------------------
 Temperature   298.150 Kelvin.  Pressure   1.00000 Atm.
 Atom     1 has atomic number  1 and mass   1.00783

 Molecular mass:    21.01405 amu.
 Principal axes and moments of inertia in atomic units:
                           1         2         3
     Eigenvalues --     0.00000 105.97137 105.97137
           X            1.00000  -0.00000   0.00000
           Y            0.00000   1.00000   0.00000
           Z            0.00000   0.00000   1.00000
 This molecule is a prolate symmetric top.
 Rotational symmetry number  1.
 Rotational temperature (Kelvin)      0.81733
 Rotational constant (GHZ):          17.030461
    3 imaginary frequencies ignored.
 Zero-point vibrational energy      49903.3 (Joules/Mol)
                                   11.92718 (Kcal/Mol)
 Vibrational temperatures:  12003.98
          (Kelvin)

 Zero-point correction=                           0.019007 (Hartree/Particle)
 Thermal correction to Energy=                    0.021368
 Thermal correction to Enthalpy=                  0.022312
 Thermal correction to Gibbs Free Energy=        -0.001519
 Sum of electronic and zero-point Energies=           -100.875051
 Sum of electronic and thermal Energies=              -100.872691
 Sum of electronic and thermal Enthalpies=            -100.871746
 Sum of electronic and thermal Free Energies=         -100.895577

                     E (Thermal)             CV                S
                      KCal/Mol        Cal/Mol-Kelvin    Cal/Mol-Kelvin
 Total                   13.408              4.968             50.156
 Electronic               0.000              0.000              1.377
 Translational            0.889              2.981             35.068
 Rotational               0.592              1.987             13.710
 Vibrational             11.927              0.000              0.000

 Normal termination of Gaussian 16 at Sat Aug 23 00:07:01 2025.
