 Gaussian 16, Revision C.01,
 Gaussian 16:  ES64L-G16RevC.01  3-Jul-2019

 -----------------------------------------
 # sp b3lyp/6-311g** Force nosymm scf=(qc)
 -----------------------------------------

 -------------------
 Title Card Required
 -------------------
 Symbolic Z-matrix:
 Charge =  0 Multiplicity = 2

                          Input orientation:
 ---------------------------------------------------------------------
 Center     Atomic      Atomic             Coordinates (Angstroms)
 Number     Number       Type             X           Y           Z
 ---------------------------------------------------------------------
      1          1           0        0.000000    0.000000    0.000000
      2          1           0       -1.350000    0.000000    0.000000
      3          9           0        0.750000    0.000000    0.000000
 ---------------------------------------------------------------------

 SCF Done:  E(UB3LYP) =  -100.913076385     a.u. after    6 cycles

 Alpha  occ. eigenvalues --  -24.63531  -1.25913  -0.58978  -0.41342  -0.41342
 Alpha  occ. eigenvalues --   -0.36144
 Alpha virt. eigenvalues --    0.13924   0.20759   0.52077   0.93090   0.93090
 Alpha virt. eigenvalues --    0.95479   1.13952   1.13952   1.38466   1.50323
 Alpha virt. eigenvalues --    1.50323   1.59596   2.03063   2.21644   3.12336

  Beta  occ. eigenvalues --  -24.63320  -1.25328  -0.57634  -0.41170  -0.41170
  Beta virt. eigenvalues --   -0.13610   0.15158   0.27683   0.56871   0.93466
  Beta virt. eigenvalues --    0.93466   0.95933   1.24796   1.24796   1.42413
  Beta virt. eigenvalues --    1.55852   1.55852   1.68569   2.03597   2.41716

 Mulliken charges and spin densities:
               1          2
     1  H    0.252756   0.010996
     2  H    0.013472   0.950341
     3  F   -0.266229   0.038663
 Sum of Mulliken charges =   0.00000   1.00000

 Dipole moment (field-independent basis, Debye):
    X=             -1.6970    Y=             -0.0000    Z=             -0.0000  Tot=              1.6970
 Quadrupole moment (field-independent basis, Debye-Ang):
   XX=             -7.2429   YY=             -6.5948   ZZ=             -6.5948
   XY=             -0.0000   XZ=             -0.0000   YZ=              0.0000

  Exact polarizability:       8.283       0.000       2.559       0.000       0.000       2.559
 Approx polarizability:       8.193       0.000       2.577       0.000       0.000       2.577

 ******    2 imaginary frequencies (negative Signs) ******

                      1                      2                      3
                      A                      A                      A
 Frequencies --  -2666.7162             -2666.7162              1011.8331
 Red. masses --      1.0264                 1.0264                 1.0536
 Frc consts  --      4.3004                 4.3004                 0.6355
 IR Inten    --    132.1457               132.1457                 9.3069

                      4
                      A
 Frequencies --   7527.9283
 Red. masses --      1.0580
 Frc consts  --     35.3245
 IR Inten    --    148.6043

 - Thermochemistry -
 -------------------
 Temperature   298.150 Kelvin.  Pressure   1.00000 Atm.
 Atom     1 has atomic number  1 and mass   1.00783

 Molecular mass:    21.01405 amu.
 Principal axes and moments of inertia in atomic units:
                           1         2         3
     Eigenvalues --     0.00000  16.49407  16.49407
           X            1.00000  -0.00000   0.00000
           Y            0.00000   1.00000   0.00000
           Z            0.00000   0.00000   1.00000
 This molecule is a prolate symmetric top.
 Rotational symmetry number  1.
 Rotational temperature (Kelvin)      5.25122
 Rotational constant (GHZ):         109.417577
    2 imaginary frequencies ignored.
 Zero-point vibrational energy      51079.1 (Joules/Mol)
                                   12.20820 (Kcal/Mol)
 Vibrational temperatures:   1455.80 10831.01
          (Kelvin)

 Zero-point correction=                           0.019455 (Hartree/Particle)
 Thermal correction to Energy=                    0.021851
 Thermal correction to Enthalpy=                  0.022795
 Thermal correction to Gibbs Free Energy=         0.000678
 Sum of electronic and zero-point Energies=           -100.893621
 Sum of electronic and thermal Energies=              -100.891226
 Sum of electronic and thermal Enthalpies=            -100.890282
 Sum of electronic and thermal Free Energies=         -100.912398

                     E (Thermal)             CV                S
                      KCal/Mol        Cal/Mol-Kelvin    Cal/Mol-Kelvin
 Total                   13.711              5.332             46.548
 Electronic               0.000              0.000              1.377
 Translational            0.889              2.981             35.068
 Rotational               0.592              1.987             10.014
 Vibrational             12.230              0.364              0.089

 Normal termination of Gaussian 16 at Fri Aug 22 15:48:18 2025.
