 Gaussian 16, Revision C.01,
 Gaussian 16:  ES64L-G16RevC.01  3-Jul-2019

 -----------------------------------------
 # sp b3lyp/6-311g** Force nosymm scf=(qc)
 -----------------------------------------

 -------------------
 Title Card Required
 -------------------
 Symbolic Z-matrix:
 Charge =  0 Multiplicity = 2

                          Input orientation:
 ---------------------------------------------------------------------
 Center     Atomic      Atomic             Coordinates (Angstroms)
 Number     Number       Type             X           Y           Z
 ---------------------------------------------------------------------
      1          1           0        0.000000    0.000000    0.000000
      2          1           0       -3.750000    0.000000    0.000000
      3          9           0        1.650000    0.000000    0.000000
 ---------------------------------------------------------------------

 SCF Done:  E(UB3LYP) =  -100.823834582     a.u. after    8 cycles

 Alpha  occ. eigenvalues --  -24.64277  -1.09016  -0.41476  -0.36098  -0.36098
 Alpha  occ. eigenvalues --   -0.33803
 Alpha virt. eigenvalues --   -0.17860   0.19935   0.27127   0.94463   0.94463
 Alpha virt. eigenvalues --    0.98582   1.07091   1.23682   1.23703   1.23703
 Alpha virt. eigenvalues --    1.28458   1.28458   1.71716   2.12478   2.17016

  Beta  occ. eigenvalues --  -24.64292  -1.09054  -0.41500  -0.36112  -0.36112
  Beta virt. eigenvalues --   -0.17902  -0.06494   0.22633   0.38175   0.94471
  Beta virt. eigenvalues --    0.94471   0.98597   1.07092   1.28557   1.28557
  Beta virt. eigenvalues --    1.45994   1.46386   1.46386   1.71789   2.15861

 Mulliken charges and spin densities:
               1          2
     1  H    0.332900   0.005688
     2  H    0.001247   0.998700
     3  F   -0.334147  -0.004388
 Sum of Mulliken charges =   0.00000   1.00000

 Dipole moment (field-independent basis, Debye):
    X=             -2.7308    Y=              0.0000    Z=             -0.0000  Tot=              2.7308
 Quadrupole moment (field-independent basis, Debye-Ang):
   XX=            -10.4886   YY=             -7.3960   ZZ=             -7.3960
   XY=              0.0000   XZ=             -0.0000   YZ=              0.0000

  Exact polarizability:      18.382       0.000       2.122      -0.000      -0.000       2.122
 Approx polarizability:      41.183      -0.000       2.037      -0.000       0.000       2.037

 ******    2 imaginary frequencies (negative Signs) ******

                      1                      2                      3
                      A                      A                      A
 Frequencies --  -1187.1949               -66.4432               906.0567
 Red. masses --      1.0578                 1.0537                 1.0301
 Frc consts  --      0.8784                 0.0027                 0.4983
 IR Inten    --     34.0953                 0.1390               106.6944

                      4
                      A
 Frequencies --    906.0567
 Red. masses --      1.0301
 Frc consts  --      0.4983
 IR Inten    --    106.6944

 - Thermochemistry -
 -------------------
 Temperature   298.150 Kelvin.  Pressure   1.00000 Atm.
 Atom     1 has atomic number  1 and mass   1.00783

 Molecular mass:    21.01405 amu.
 Principal axes and moments of inertia in atomic units:
                           1         2         3
     Eigenvalues --     0.00000 106.16639 106.16639
           X            1.00000  -0.00000   0.00000
           Y            0.00000   1.00000   0.00000
           Z            0.00000   0.00000   1.00000
 This molecule is a prolate symmetric top.
 Rotational symmetry number  1.
 Rotational temperature (Kelvin)      0.81583
 Rotational constant (GHZ):          16.999176
    2 imaginary frequencies ignored.
 Zero-point vibrational energy      10838.8 (Joules/Mol)
                                    2.59055 (Kcal/Mol)
 Vibrational temperatures:   1303.61  1303.61
          (Kelvin)

 Zero-point correction=                           0.004128 (Hartree/Particle)
 Thermal correction to Energy=                    0.006594
 Thermal correction to Enthalpy=                  0.007538
 Thermal correction to Gibbs Free Energy=        -0.016423
 Sum of electronic and zero-point Energies=           -100.819706
 Sum of electronic and thermal Energies=              -100.817240
 Sum of electronic and thermal Enthalpies=            -100.816296
 Sum of electronic and thermal Free Energies=         -100.840258

                     E (Thermal)             CV                S
                      KCal/Mol        Cal/Mol-Kelvin    Cal/Mol-Kelvin
 Total                    4.138              5.952             50.432
 Electronic               0.000              0.000              1.377
 Translational            0.889              2.981             35.068
 Rotational               0.592              1.987             13.714
 Vibrational              2.657              0.984              0.273

 Normal termination of Gaussian 16 at Fri Aug 22 16:35:52 2025.
