 Gaussian 16, Revision C.01,
 Gaussian 16:  ES64L-G16RevC.01  3-Jul-2019

 -----------------------------------------
 # sp b3lyp/6-311g** Force nosymm scf=(qc)
 -----------------------------------------

 -------------------
 Title Card Required
 -------------------
 Symbolic Z-matrix:
 Charge =  0 Multiplicity = 2

                          Input orientation:
 ---------------------------------------------------------------------
 Center     Atomic      Atomic             Coordinates (Angstroms)
 Number     Number       Type             X           Y           Z
 ---------------------------------------------------------------------
      1          1           0        0.000000    0.000000    0.000000
      2          1           0       -1.850000    0.000000    0.000000
      3          9           0        3.100000    0.000000    0.000000
 ---------------------------------------------------------------------

 SCF Done:  E(UB3LYP) =  -100.783749363     a.u. after   24 cycles

 Alpha  occ. eigenvalues --  -24.74833  -1.20836  -0.53955  -0.45305  -0.45305
 Alpha  occ. eigenvalues --   -0.33746
 Alpha virt. eigenvalues --   -0.11624   0.25457   0.31067   0.89209   0.91805
 Alpha virt. eigenvalues --    0.91805   1.03344   1.11078   1.24044   1.24044
 Alpha virt. eigenvalues --    1.36649   1.36649   1.57771   2.13473   2.38766

  Beta  occ. eigenvalues --  -24.71764  -1.12028  -0.42231  -0.42231  -0.33737
  Beta virt. eigenvalues --   -0.25289  -0.11266   0.25790   0.31454   0.93279
  Beta virt. eigenvalues --    0.93279   0.98045   1.07245   1.11257   1.24036
  Beta virt. eigenvalues --    1.24036   1.37118   1.37118   1.58189   2.14459

 Mulliken charges and spin densities:
               1          2
     1  H    0.008674  -0.744891
     2  H    0.014863   0.772136
     3  F   -0.023536   0.972756
 Sum of Mulliken charges =   0.00000   1.00000

 Dipole moment (field-independent basis, Debye):
    X=             -0.5044    Y=             -0.0000    Z=              0.0000  Tot=              0.5044
 Quadrupole moment (field-independent basis, Debye-Ang):
   XX=             -6.8788   YY=             -7.7358   ZZ=             -7.7358
   XY=             -0.0000   XZ=              0.0000   YZ=             -0.0000

  Exact polarizability:      58.030      -0.000       2.009       0.000      -0.000       2.009
 Approx polarizability:      57.112      -0.000       1.948       0.000       0.000       1.948

 ******    2 imaginary frequencies (negative Signs) ******

                      1                      2                      3
                      A                      A                      A
 Frequencies --  -1643.4428              -207.5401               704.4400
 Red. masses --      1.0079                 1.1084                 1.0129
 Frc consts  --      1.6039                 0.0281                 0.2961
 IR Inten    --     51.4877                22.5037                 0.0061

                      4
                      A
 Frequencies --    704.4400
 Red. masses --      1.0129
 Frc consts  --      0.2961
 IR Inten    --      0.0061

 - Thermochemistry -
 -------------------
 Temperature   298.150 Kelvin.  Pressure   1.00000 Atm.
 Atom     1 has atomic number  1 and mass   1.00783

 Molecular mass:    21.01405 amu.
 Principal axes and moments of inertia in atomic units:
                           1         2         3
     Eigenvalues --     0.00000 111.58582 111.58582
           X            1.00000  -0.00000   0.00000
           Y            0.00000   1.00000   0.00000
           Z            0.00000   0.00000   1.00000
 This molecule is a prolate symmetric top.
 Rotational symmetry number  1.
 Rotational temperature (Kelvin)      0.77621
 Rotational constant (GHZ):          16.173571
    2 imaginary frequencies ignored.
 Zero-point vibrational energy       8427.0 (Joules/Mol)
                                    2.01410 (Kcal/Mol)
 Vibrational temperatures:   1013.53  1013.53
          (Kelvin)

 Zero-point correction=                           0.003210 (Hartree/Particle)
 Thermal correction to Energy=                    0.005792
 Thermal correction to Enthalpy=                  0.006736
 Thermal correction to Gibbs Free Energy=        -0.017429
 Sum of electronic and zero-point Energies=           -100.780540
 Sum of electronic and thermal Energies=              -100.777957
 Sum of electronic and thermal Enthalpies=            -100.777013
 Sum of electronic and thermal Free Energies=         -100.801179

                     E (Thermal)             CV                S
                      KCal/Mol        Cal/Mol-Kelvin    Cal/Mol-Kelvin
 Total                    3.634              6.609             50.860
 Electronic               0.000              0.000              1.377
 Translational            0.889              2.981             35.068
 Rotational               0.592              1.987             13.813
 Vibrational              2.153              1.641              0.602

 Normal termination of Gaussian 16 at Fri Aug 22 19:54:16 2025.
