 Gaussian 16, Revision C.01,
 Gaussian 16:  ES64L-G16RevC.01  3-Jul-2019

 -----------------------------------------
 # sp b3lyp/6-311g** Force nosymm scf=(qc)
 -----------------------------------------

 -------------------
 Title Card Required
 -------------------
 Symbolic Z-matrix:
 Charge =  0 Multiplicity = 2

                          Input orientation:
 ---------------------------------------------------------------------
 Center     Atomic      Atomic             Coordinates (Angstroms)
 Number     Number       Type             X           Y           Z
 ---------------------------------------------------------------------
      1          1           0        0.000000    0.000000    0.000000
      2          1           0       -3.200000    0.000000    0.000000
      3          9           0        3.600000    0.000000    0.000000
 ---------------------------------------------------------------------

 SCF Done:  E(UB3LYP) =  -100.759364075     a.u. after   32 cycles

 Alpha  occ. eigenvalues --  -24.75545  -1.21496  -0.54668  -0.45900  -0.45900
 Alpha  occ. eigenvalues --   -0.32366
 Alpha virt. eigenvalues --   -0.07471   0.24674   0.36644   0.87315   0.91382
 Alpha virt. eigenvalues --    0.91382   1.01582   1.25153   1.25153   1.25560
 Alpha virt. eigenvalues --    1.44527   1.44702   1.44702   2.15476   2.40233

  Beta  occ. eigenvalues --  -24.72421  -1.12517  -0.42769  -0.42769  -0.32742
  Beta virt. eigenvalues --   -0.25565  -0.07028   0.24458   0.37361   0.92874
  Beta virt. eigenvalues --    0.92874   0.96522   1.05631   1.24723   1.24723
  Beta virt. eigenvalues --    1.25104   1.45215   1.45409   1.45409   2.15666

 Mulliken charges and spin densities:
               1          2
     1  H    0.008280  -0.985974
     2  H    0.000324   0.995486
     3  F   -0.008605   0.990488
 Sum of Mulliken charges =   0.00000   1.00000

 Dipole moment (field-independent basis, Debye):
    X=             -0.1644    Y=              0.0000    Z=              0.0000  Tot=              0.1644
 Quadrupole moment (field-independent basis, Debye-Ang):
   XX=             -7.2200   YY=             -7.6288   ZZ=             -7.6288
   XY=              0.0000   XZ=             -0.0000   YZ=             -0.0000

  Exact polarizability:      22.130       0.000       2.042      -0.000      -0.000       2.042
 Approx polarizability:      16.820       0.000       1.933      -0.000       0.000       1.933

 ******    2 imaginary frequencies (negative Signs) ******

                      1                      2                      3
                      A                      A                      A
 Frequencies --   -287.9658              -112.9133                90.8908
 Red. masses --      1.0130                 1.1024                 1.0166
 Frc consts  --      0.0495                 0.0083                 0.0049
 IR Inten    --      5.6779                 2.4043                 0.0498

                      4
                      A
 Frequencies --     90.8911
 Red. masses --      1.0166
 Frc consts  --      0.0049
 IR Inten    --      0.0498

 - Thermochemistry -
 -------------------
 Temperature   298.150 Kelvin.  Pressure   1.00000 Atm.
 Atom     1 has atomic number  1 and mass   1.00783

 Molecular mass:    21.01405 amu.
 Principal axes and moments of inertia in atomic units:
                           1         2         3
     Eigenvalues --     0.00000 194.39214 194.39214
           X            1.00000  -0.00000   0.00000
           Y            0.00000   1.00000   0.00000
           Z            0.00000   0.00000   1.00000
 This molecule is a prolate symmetric top.
 Rotational symmetry number  1.
 Rotational temperature (Kelvin)      0.44556
 Rotational constant (GHZ):           9.284023
    2 imaginary frequencies ignored.
 Zero-point vibrational energy       1087.3 (Joules/Mol)
                                    0.25987 (Kcal/Mol)
 Warning -- explicit consideration of   2 degrees of freedom as
           vibrations may cause significant error
 Vibrational temperatures:    130.77   130.77
          (Kelvin)

 Zero-point correction=                           0.000414 (Hartree/Particle)
 Thermal correction to Energy=                    0.004279
 Thermal correction to Enthalpy=                  0.005223
 Thermal correction to Gibbs Free Energy=        -0.022640
 Sum of electronic and zero-point Energies=           -100.758950
 Sum of electronic and thermal Energies=              -100.755085
 Sum of electronic and thermal Enthalpies=            -100.754141
 Sum of electronic and thermal Free Energies=         -100.782004

                     E (Thermal)             CV                S
                      KCal/Mol        Cal/Mol-Kelvin    Cal/Mol-Kelvin
 Total                    2.685              8.879             58.643
 Electronic               0.000              0.000              1.377
 Translational            0.889              2.981             35.068
 Rotational               0.592              1.987             14.916
 Vibrational              1.204              3.911              7.282
 Vibration     1          0.602              1.956              3.641
 Vibration     2          0.602              1.956              3.641

 Normal termination of Gaussian 16 at Fri Aug 22 23:07:27 2025.
