 Gaussian 16, Revision C.01,
 Gaussian 16:  ES64L-G16RevC.01  3-Jul-2019

 -----------------------------------------
 # sp b3lyp/6-311g** Force nosymm scf=(qc)
 -----------------------------------------

 -------------------
 Title Card Required
 -------------------
 Symbolic Z-matrix:
 Charge =  0 Multiplicity = 2

                          Input orientation:
 ---------------------------------------------------------------------
 Center     Atomic      Atomic             Coordinates (Angstroms)
 Number     Number       Type             X           Y           Z
 ---------------------------------------------------------------------
      1          1           0        0.000000    0.000000    0.000000
      2          1           0       -3.550000    0.000000    0.000000
      3          9           0        3.250000    0.000000    0.000000
 ---------------------------------------------------------------------

 SCF Done:  E(UB3LYP) =  -100.759765242     a.u. after   22 cycles

 Alpha  occ. eigenvalues --  -24.74852  -1.20855  -0.53973  -0.45317  -0.45317
 Alpha  occ. eigenvalues --   -0.32415
 Alpha virt. eigenvalues --   -0.07383   0.24144   0.36571   0.88470   0.91811
 Alpha virt. eigenvalues --    0.91811   1.02654   1.25088   1.25088   1.25217
 Alpha virt. eigenvalues --    1.44820   1.44820   1.45030   2.14869   2.41085

  Beta  occ. eigenvalues --  -24.71773  -1.12016  -0.42233  -0.42233  -0.33200
  Beta virt. eigenvalues --   -0.25201  -0.06435   0.23936   0.37955   0.93289
  Beta virt. eigenvalues --    0.93289   0.97420   1.06548   1.24182   1.24182
  Beta virt. eigenvalues --    1.24328   1.45959   1.46196   1.46196   2.15168

 Mulliken charges and spin densities:
               1          2
     1  H    0.021486  -0.974323
     2  H    0.000258   0.998156
     3  F   -0.021744   0.976167
 Sum of Mulliken charges =  -0.00000   1.00000

 Dipole moment (field-independent basis, Debye):
    X=             -0.3676    Y=             -0.0000    Z=             -0.0000  Tot=              0.3676
 Quadrupole moment (field-independent basis, Debye-Ang):
   XX=             -7.8212   YY=             -7.6170   ZZ=             -7.6170
   XY=             -0.0000   XZ=             -0.0000   YZ=              0.0000

  Exact polarizability:      28.987      -0.000       2.030      -0.000      -0.000       2.030
 Approx polarizability:      25.840      -0.000       1.930      -0.000       0.000       1.930

 ******    2 imaginary frequencies (negative Signs) ******

                      1                      2                      3
                      A                      A                      A
 Frequencies --   -297.6866              -107.7179                98.1942
 Red. masses --      1.0406                 1.0714                 1.0191
 Frc consts  --      0.0543                 0.0073                 0.0058
 IR Inten    --     23.0619                 0.8137                 0.4245

                      4
                      A
 Frequencies --     98.1942
 Red. masses --      1.0191
 Frc consts  --      0.0058
 IR Inten    --      0.4245

 - Thermochemistry -
 -------------------
 Temperature   298.150 Kelvin.  Pressure   1.00000 Atm.
 Atom     1 has atomic number  1 and mass   1.00783

 Molecular mass:    21.01405 amu.
 Principal axes and moments of inertia in atomic units:
                           1         2         3
     Eigenvalues --     0.00000 186.99895 186.99895
           X            1.00000  -0.00000   0.00000
           Y            0.00000   1.00000   0.00000
           Z            0.00000   0.00000   1.00000
 This molecule is a prolate symmetric top.
 Rotational symmetry number  1.
 Rotational temperature (Kelvin)      0.46318
 Rotational constant (GHZ):           9.651077
    2 imaginary frequencies ignored.
 Zero-point vibrational energy       1174.7 (Joules/Mol)
                                    0.28075 (Kcal/Mol)
 Warning -- explicit consideration of   2 degrees of freedom as
           vibrations may cause significant error
 Vibrational temperatures:    141.28   141.28
          (Kelvin)

 Zero-point correction=                           0.000447 (Hartree/Particle)
 Thermal correction to Energy=                    0.004284
 Thermal correction to Enthalpy=                  0.005228
 Thermal correction to Gibbs Free Energy=        -0.022455
 Sum of electronic and zero-point Energies=           -100.759318
 Sum of electronic and thermal Energies=              -100.755481
 Sum of electronic and thermal Enthalpies=            -100.754537
 Sum of electronic and thermal Free Energies=         -100.782220

                     E (Thermal)             CV                S
                      KCal/Mol        Cal/Mol-Kelvin    Cal/Mol-Kelvin
 Total                    2.688              8.869             58.264
 Electronic               0.000              0.000              1.377
 Translational            0.889              2.981             35.068
 Rotational               0.592              1.987             14.839
 Vibrational              1.207              3.901              6.980
 Vibration     1          0.604              1.950              3.490
 Vibration     2          0.604              1.950              3.490

 Normal termination of Gaussian 16 at Fri Aug 22 20:36:17 2025.
