 Gaussian 16, Revision C.01,
 Gaussian 16:  ES64L-G16RevC.01  3-Jul-2019

 -----------------------------------------
 # sp b3lyp/6-311g** Force nosymm scf=(qc)
 -----------------------------------------

 -------------------
 Title Card Required
 -------------------
 Symbolic Z-matrix:
 Charge =  0 Multiplicity = 2

                          Input orientation:
 ---------------------------------------------------------------------
 Center     Atomic      Atomic             Coordinates (Angstroms)
 Number     Number       Type             X           Y           Z
 ---------------------------------------------------------------------
      1          1           0        0.000000    0.000000    0.000000
      2          1           0       -1.000000    0.000000    0.000000
      3          9           0        1.600000    0.000000    0.000000
 ---------------------------------------------------------------------

 SCF Done:  E(UB3LYP) =  -100.919576526     a.u. after    9 cycles

 Alpha  occ. eigenvalues --  -24.70102  -1.16893  -0.52583  -0.41677  -0.41677
 Alpha  occ. eigenvalues --   -0.41163
 Alpha virt. eigenvalues --    0.02473   0.20299   0.35209   0.90261   0.90261
 Alpha virt. eigenvalues --    0.97476   1.07507   1.07507   1.14763   1.62658
 Alpha virt. eigenvalues --    1.63592   1.63592   2.20942   2.31501   2.55210

  Beta  occ. eigenvalues --  -24.67616  -1.10024  -0.43362  -0.39248  -0.39248
  Beta virt. eigenvalues --   -0.23852   0.04646   0.21650   0.36711   0.91268
  Beta virt. eigenvalues --    0.91268   1.03827   1.10071   1.10071   1.17812
  Beta virt. eigenvalues --    1.65090   1.65090   1.66133   2.23089   2.34976

 Mulliken charges and spin densities:
               1          2
     1  H    0.120992  -0.096297
     2  H    0.050290   0.332517
     3  F   -0.171282   0.763780
 Sum of Mulliken charges =   0.00000   1.00000

 Dipole moment (field-independent basis, Debye):
    X=             -1.5608    Y=              0.0000    Z=             -0.0000  Tot=              1.5608
 Quadrupole moment (field-independent basis, Debye-Ang):
   XX=             -7.1848   YY=             -7.0655   ZZ=             -7.0655
   XY=              0.0000   XZ=             -0.0000   YZ=              0.0000

  Exact polarizability:      29.481      -0.000       2.320       0.000      -0.000       2.320
 Approx polarizability:      42.256       0.000       2.319      -0.000      -0.000       2.319

 ******    1 imaginary frequencies (negative Signs) ******

                      1                      2                      3
                      A                      A                      A
 Frequencies --  -1347.5607              1105.5594              1307.6281
 Red. masses --      1.0615                 1.0501                 1.0133
 Frc consts  --      1.1357                 0.7562                 1.0208
 IR Inten    --    802.4982               305.2358                 1.9451

                      4
                      A
 Frequencies --   1307.6281
 Red. masses --      1.0133
 Frc consts  --      1.0208
 IR Inten    --      1.9451

 - Thermochemistry -
 -------------------
 Temperature   298.150 Kelvin.  Pressure   1.00000 Atm.
 Atom     1 has atomic number  1 and mass   1.00783

 Molecular mass:    21.01405 amu.
 Principal axes and moments of inertia in atomic units:
                           1         2         3
     Eigenvalues --     0.00000  30.49797  30.49797
           X            1.00000  -0.00000   0.00000
           Y            0.00000   1.00000   0.00000
           Z            0.00000   0.00000   1.00000
 This molecule is a prolate symmetric top.
 Rotational symmetry number  1.
 Rotational temperature (Kelvin)      2.83999
 Rotational constant (GHZ):          59.175774
    1 imaginary frequencies ignored.
 Zero-point vibrational energy      22255.4 (Joules/Mol)
                                    5.31917 (Kcal/Mol)
 Vibrational temperatures:   1590.65  1881.39  1881.39
          (Kelvin)

 Zero-point correction=                           0.008477 (Hartree/Particle)
 Thermal correction to Energy=                    0.010883
 Thermal correction to Enthalpy=                  0.011827
 Thermal correction to Gibbs Free Energy=        -0.010881
 Sum of electronic and zero-point Energies=           -100.911100
 Sum of electronic and thermal Energies=              -100.908693
 Sum of electronic and thermal Enthalpies=            -100.907749
 Sum of electronic and thermal Free Energies=         -100.930458

                     E (Thermal)             CV                S
                      KCal/Mol        Cal/Mol-Kelvin    Cal/Mol-Kelvin
 Total                    6.829              5.532             47.795
 Electronic               0.000              0.000              1.377
 Translational            0.889              2.981             35.068
 Rotational               0.592              1.987             11.235
 Vibrational              5.348              0.564              0.114

 Normal termination of Gaussian 16 at Fri Aug 22 16:30:13 2025.
