 Gaussian 16, Revision C.01,
 Gaussian 16:  ES64L-G16RevC.01  3-Jul-2019

 -----------------------------------------
 # sp b3lyp/6-311g** Force nosymm scf=(qc)
 -----------------------------------------

 -------------------
 Title Card Required
 -------------------
 Symbolic Z-matrix:
 Charge =  0 Multiplicity = 2

                          Input orientation:
 ---------------------------------------------------------------------
 Center     Atomic      Atomic             Coordinates (Angstroms)
 Number     Number       Type             X           Y           Z
 ---------------------------------------------------------------------
      1          1           0        0.000000    0.000000    0.000000
      2          1           0       -1.150000    0.000000    0.000000
      3          9           0        1.700000    0.000000    0.000000
 ---------------------------------------------------------------------

 SCF Done:  E(UB3LYP) =  -100.895526360     a.u. after   12 cycles

 Alpha  occ. eigenvalues --  -24.69792  -1.16396  -0.50980  -0.41300  -0.41300
 Alpha  occ. eigenvalues --   -0.40287
 Alpha virt. eigenvalues --   -0.02162   0.20769   0.32887   0.91529   0.91529
 Alpha virt. eigenvalues --    0.95175   1.07460   1.09111   1.09111   1.52561
 Alpha virt. eigenvalues --    1.54393   1.54393   2.12595   2.27431   2.53913

  Beta  occ. eigenvalues --  -24.67321  -1.09527  -0.41172  -0.38875  -0.38875
  Beta virt. eigenvalues --   -0.23956   0.00223   0.22323   0.33819   0.92442
  Beta virt. eigenvalues --    0.92442   1.01561   1.10132   1.11670   1.11670
  Beta virt. eigenvalues --    1.55803   1.55803   1.56384   2.15143   2.30272

 Mulliken charges and spin densities:
               1          2
     1  H    0.110465  -0.142186
     2  H    0.060685   0.375726
     3  F   -0.171150   0.766460
 Sum of Mulliken charges =  -0.00000   1.00000

 Dipole moment (field-independent basis, Debye):
    X=             -1.7368    Y=             -0.0000    Z=             -0.0000  Tot=              1.7368
 Quadrupole moment (field-independent basis, Debye-Ang):
   XX=             -7.3268   YY=             -7.2247   ZZ=             -7.2247
   XY=             -0.0000   XZ=             -0.0000   YZ=             -0.0000

  Exact polarizability:      36.142      -0.000       2.277      -0.000      -0.000       2.277
 Approx polarizability:      54.550       0.000       2.258       0.000       0.000       2.258

 ******    1 imaginary frequencies (negative Signs) ******

                      1                      2                      3
                      A                      A                      A
 Frequencies --  -1896.7120               380.7643              1328.9540
 Red. masses --      1.0249                 1.0886                 1.0139
 Frc consts  --      2.1723                 0.0930                 1.0550
 IR Inten    --   1182.1253                24.7910                 2.0889

                      4
                      A
 Frequencies --   1328.9540
 Red. masses --      1.0139
 Frc consts  --      1.0550
 IR Inten    --      2.0889

 - Thermochemistry -
 -------------------
 Temperature   298.150 Kelvin.  Pressure   1.00000 Atm.
 Atom     1 has atomic number  1 and mass   1.00783

 Molecular mass:    21.01405 amu.
 Principal axes and moments of inertia in atomic units:
                           1         2         3
     Eigenvalues --     0.00000  36.06069  36.06069
           X            1.00000  -0.00000   0.00000
           Y            0.00000   1.00000   0.00000
           Z            0.00000   0.00000   1.00000
 This molecule is a prolate symmetric top.
 Rotational symmetry number  1.
 Rotational temperature (Kelvin)      2.40189
 Rotational constant (GHZ):          50.047333
    1 imaginary frequencies ignored.
 Zero-point vibrational energy      18175.3 (Joules/Mol)
                                    4.34400 (Kcal/Mol)
 Warning -- explicit consideration of   1 degrees of freedom as
           vibrations may cause significant error
 Vibrational temperatures:    547.83  1912.07  1912.07
          (Kelvin)

 Zero-point correction=                           0.006923 (Hartree/Particle)
 Thermal correction to Energy=                    0.009632
 Thermal correction to Enthalpy=                  0.010576
 Thermal correction to Gibbs Free Energy=        -0.012752
 Sum of electronic and zero-point Energies=           -100.888604
 Sum of electronic and thermal Energies=              -100.885895
 Sum of electronic and thermal Enthalpies=            -100.884951
 Sum of electronic and thermal Free Energies=         -100.908279

                     E (Thermal)             CV                S
                      KCal/Mol        Cal/Mol-Kelvin    Cal/Mol-Kelvin
 Total                    6.044              6.748             49.098
 Electronic               0.000              0.000              1.377
 Translational            0.889              2.981             35.068
 Rotational               0.592              1.987             11.568
 Vibrational              4.563              1.780              1.085
 Vibration     1          0.750              1.511              1.036

 Normal termination of Gaussian 16 at Fri Aug 22 16:36:39 2025.
