 Gaussian 16, Revision C.01,
 Gaussian 16:  ES64L-G16RevC.01  3-Jul-2019

 -----------------------------------------
 # sp b3lyp/6-311g** Force nosymm scf=(qc)
 -----------------------------------------

 -------------------
 Title Card Required
 -------------------
 Symbolic Z-matrix:
 Charge =  0 Multiplicity = 2

                          Input orientation:
 ---------------------------------------------------------------------
 Center     Atomic      Atomic             Coordinates (Angstroms)
 Number     Number       Type             X           Y           Z
 ---------------------------------------------------------------------
      1          1           0        0.000000    0.000000    0.000000
      2          1           0       -0.750000    0.000000    0.000000
      3          9           0        1.800000    0.000000    0.000000
 ---------------------------------------------------------------------

 SCF Done:  E(UB3LYP) =  -100.935746286     a.u. after    7 cycles

 Alpha  occ. eigenvalues --  -24.73720  -1.20035  -0.54775  -0.44532  -0.44532
 Alpha  occ. eigenvalues --   -0.44438
 Alpha virt. eigenvalues --    0.07715   0.20286   0.43476   0.90075   0.90075
 Alpha virt. eigenvalues --    0.94636   1.07503   1.07503   1.17323   1.67555
 Alpha virt. eigenvalues --    1.81000   1.81000   1.95826   2.41022   3.26103

  Beta  occ. eigenvalues --  -24.70791  -1.11763  -0.45656  -0.41629  -0.41629
  Beta virt. eigenvalues --   -0.24982   0.08707   0.20998   0.44452   0.91340
  Beta virt. eigenvalues --    0.91340   1.02047   1.08650   1.08650   1.20656
  Beta virt. eigenvalues --    1.69522   1.81605   1.81605   1.96631   2.42248

 Mulliken charges and spin densities:
               1          2
     1  H    0.038585  -0.036398
     2  H    0.029426   0.125352
     3  F   -0.068011   0.911046
 Sum of Mulliken charges =   0.00000   1.00000

 Dipole moment (field-independent basis, Debye):
    X=             -0.6824    Y=              0.0000    Z=              0.0000  Tot=              0.6824
 Quadrupole moment (field-independent basis, Debye-Ang):
   XX=             -6.3560   YY=             -6.8765   ZZ=             -6.8765
   XY=              0.0000   XZ=              0.0000   YZ=              0.0000

  Exact polarizability:      19.663      -0.000       2.160      -0.000       0.000       2.160
 Approx polarizability:      23.151      -0.000       2.213      -0.000      -0.000       2.213

 ******    3 imaginary frequencies (negative Signs) ******

                      1                      2                      3
                      A                      A                      A
 Frequencies --   -533.3937              -533.3937              -214.6493
 Red. masses --      1.0107                 1.0107                 1.1084
 Frc consts  --      0.1694                 0.1694                 0.0301
 IR Inten    --      0.0370                 0.0370                54.9579

                      4
                      A
 Frequencies --   4198.7955
 Red. masses --      1.0079
 Frc consts  --     10.4691
 IR Inten    --    449.7761

 - Thermochemistry -
 -------------------
 Temperature   298.150 Kelvin.  Pressure   1.00000 Atm.
 Atom     1 has atomic number  1 and mass   1.00783

 Molecular mass:    21.01405 amu.
 Principal axes and moments of inertia in atomic units:
                           1         2         3
     Eigenvalues --     0.00000  31.79719  31.79719
           X            1.00000  -0.00000   0.00000
           Y            0.00000   1.00000   0.00000
           Z            0.00000   0.00000   1.00000
 This molecule is a prolate symmetric top.
 Rotational symmetry number  1.
 Rotational temperature (Kelvin)      2.72395
 Rotational constant (GHZ):          56.757890
    3 imaginary frequencies ignored.
 Zero-point vibrational energy      25114.4 (Joules/Mol)
                                    6.00248 (Kcal/Mol)
 Vibrational temperatures:   6041.13
          (Kelvin)

 Zero-point correction=                           0.009566 (Hartree/Particle)
 Thermal correction to Energy=                    0.011926
 Thermal correction to Enthalpy=                  0.012870
 Thermal correction to Gibbs Free Energy=        -0.009824
 Sum of electronic and zero-point Energies=           -100.926181
 Sum of electronic and thermal Energies=              -100.923820
 Sum of electronic and thermal Enthalpies=            -100.922876
 Sum of electronic and thermal Free Energies=         -100.945570

                     E (Thermal)             CV                S
                      KCal/Mol        Cal/Mol-Kelvin    Cal/Mol-Kelvin
 Total                    7.484              4.968             47.764
 Electronic               0.000              0.000              1.377
 Translational            0.889              2.981             35.068
 Rotational               0.592              1.987             11.318
 Vibrational              6.002              0.000              0.000

 Normal termination of Gaussian 16 at Fri Aug 22 16:42:22 2025.
