 Gaussian 16, Revision C.01,
 Gaussian 16:  ES64L-G16RevC.01  3-Jul-2019

 -----------------------------------------
 # sp b3lyp/6-311g** Force nosymm scf=(qc)
 -----------------------------------------

 -------------------
 Title Card Required
 -------------------
 Symbolic Z-matrix:
 Charge =  0 Multiplicity = 2

                          Input orientation:
 ---------------------------------------------------------------------
 Center     Atomic      Atomic             Coordinates (Angstroms)
 Number     Number       Type             X           Y           Z
 ---------------------------------------------------------------------
      1          1           0        0.000000    0.000000    0.000000
      2          1           0       -3.700000    0.000000    0.000000
      3          9           0        1.750000    0.000000    0.000000
 ---------------------------------------------------------------------

 SCF Done:  E(UB3LYP) =  -100.805562070     a.u. after   10 cycles

 Alpha  occ. eigenvalues --  -24.64215  -1.08731  -0.40496  -0.35935  -0.35935
 Alpha  occ. eigenvalues --   -0.33868
 Alpha virt. eigenvalues --   -0.19671   0.19789   0.27170   0.94518   0.95261
 Alpha virt. eigenvalues --    0.95261   1.07570   1.23622   1.23636   1.23636
 Alpha virt. eigenvalues --    1.26776   1.26776   1.68084   2.12311   2.16507

  Beta  occ. eigenvalues --  -24.64223  -1.08751  -0.40503  -0.35942  -0.35942
  Beta virt. eigenvalues --   -0.19712  -0.06676   0.22506   0.38073   0.94546
  Beta virt. eigenvalues --    0.95266   0.95266   1.07575   1.26846   1.26846
  Beta virt. eigenvalues --    1.45760   1.46175   1.46175   1.68141   2.15191

 Mulliken charges and spin densities:
               1          2
     1  H    0.320226   0.004001
     2  H    0.001654   0.998280
     3  F   -0.321881  -0.002281
 Sum of Mulliken charges =   0.00000   1.00000

 Dipole moment (field-independent basis, Debye):
    X=             -2.8148    Y=             -0.0000    Z=             -0.0000  Tot=              2.8148
 Quadrupole moment (field-independent basis, Debye-Ang):
   XX=            -10.8550   YY=             -7.4393   ZZ=             -7.4393
   XY=              0.0000   XZ=             -0.0000   YZ=             -0.0000

  Exact polarizability:      21.097       0.000       2.084      -0.000      -0.000       2.084
 Approx polarizability:      52.348      -0.000       1.994      -0.000      -0.000       1.994

 ******    2 imaginary frequencies (negative Signs) ******

                      1                      2                      3
                      A                      A                      A
 Frequencies --  -1173.1411               -76.8415               833.9584
 Red. masses --      1.0577                 1.0539                 1.0290
 Frc consts  --      0.8576                 0.0037                 0.4216
 IR Inten    --     33.4019                 0.2496                99.0379

                      4
                      A
 Frequencies --    833.9584
 Red. masses --      1.0290
 Frc consts  --      0.4216
 IR Inten    --     99.0379

 - Thermochemistry -
 -------------------
 Temperature   298.150 Kelvin.  Pressure   1.00000 Atm.
 Atom     1 has atomic number  1 and mass   1.00783

 Molecular mass:    21.01405 amu.
 Principal axes and moments of inertia in atomic units:
                           1         2         3
     Eigenvalues --     0.00000 108.97357 108.97357
           X            1.00000  -0.00000   0.00000
           Y            0.00000   1.00000   0.00000
           Z            0.00000   0.00000   1.00000
 This molecule is a prolate symmetric top.
 Rotational symmetry number  1.
 Rotational temperature (Kelvin)      0.79482
 Rotational constant (GHZ):          16.561274
    2 imaginary frequencies ignored.
 Zero-point vibrational energy       9976.4 (Joules/Mol)
                                    2.38441 (Kcal/Mol)
 Vibrational temperatures:   1199.88  1199.88
          (Kelvin)

 Zero-point correction=                           0.003800 (Hartree/Particle)
 Thermal correction to Energy=                    0.006299
 Thermal correction to Enthalpy=                  0.007243
 Thermal correction to Gibbs Free Energy=        -0.016787
 Sum of electronic and zero-point Energies=           -100.801762
 Sum of electronic and thermal Energies=              -100.799264
 Sum of electronic and thermal Enthalpies=            -100.798319
 Sum of electronic and thermal Free Energies=         -100.822349

                     E (Thermal)             CV                S
                      KCal/Mol        Cal/Mol-Kelvin    Cal/Mol-Kelvin
 Total                    3.952              6.161             50.574
 Electronic               0.000              0.000              1.377
 Translational            0.889              2.981             35.068
 Rotational               0.592              1.987             13.766
 Vibrational              2.471              1.193              0.363

 Normal termination of Gaussian 16 at Fri Aug 22 16:41:57 2025.
