 Gaussian 16, Revision C.01,
 Gaussian 16:  ES64L-G16RevC.01  3-Jul-2019

 -----------------------------------------
 # sp b3lyp/6-311g** Force nosymm scf=(qc)
 -----------------------------------------

 -------------------
 Title Card Required
 -------------------
 Symbolic Z-matrix:
 Charge =  0 Multiplicity = 2

                          Input orientation:
 ---------------------------------------------------------------------
 Center     Atomic      Atomic             Coordinates (Angstroms)
 Number     Number       Type             X           Y           Z
 ---------------------------------------------------------------------
      1          1           0        0.000000    0.000000    0.000000
      2          1           0       -2.800000    0.000000    0.000000
      3          9           0        2.350000    0.000000    0.000000
 ---------------------------------------------------------------------

 SCF Done:  E(UB3LYP) =  -100.772822522     a.u. after   22 cycles

 Alpha  occ. eigenvalues --  -24.70801  -1.17062  -0.49884  -0.41920  -0.41920
 Alpha  occ. eigenvalues --   -0.33613
 Alpha virt. eigenvalues --   -0.11908   0.24165   0.33465   0.89363   0.94089
 Alpha virt. eigenvalues --    0.94089   1.06585   1.23958   1.23958   1.25526
 Alpha virt. eigenvalues --    1.38405   1.38405   1.46628   2.14917   2.33034

  Beta  occ. eigenvalues --  -24.68052  -1.09268  -0.39186  -0.39186  -0.35986
  Beta virt. eigenvalues --   -0.22731  -0.08580   0.24974   0.35950   0.94548
  Beta virt. eigenvalues --    0.95357   0.95357   1.08832   1.21811   1.21811
  Beta virt. eigenvalues --    1.34923   1.43474   1.43474   1.44163   2.13525

 Mulliken charges and spin densities:
               1          2
     1  H    0.107704  -0.854309
     2  H    0.006268   0.987038
     3  F   -0.113972   0.867271
 Sum of Mulliken charges =   0.00000   1.00000

 Dipole moment (field-independent basis, Debye):
    X=             -1.4377    Y=              0.0000    Z=             -0.0000  Tot=              1.4377
 Quadrupole moment (field-independent basis, Debye-Ang):
   XX=             -9.2938   YY=             -7.5722   ZZ=             -7.5722
   XY=              0.0000   XZ=             -0.0000   YZ=             -0.0000

  Exact polarizability:      35.812       0.000       2.026      -0.000      -0.000       2.026
 Approx polarizability:      43.035       0.000       1.921      -0.000       0.000       1.921

 ******    2 imaginary frequencies (negative Signs) ******

                      1                      2                      3
                      A                      A                      A
 Frequencies --   -784.8010              -273.0678               317.6091
 Red. masses --      1.0419                 1.0700                 1.0202
 Frc consts  --      0.3781                 0.0470                 0.0606
 IR Inten    --     82.9042                 6.7960                10.2891

                      4
                      A
 Frequencies --    317.6091
 Red. masses --      1.0202
 Frc consts  --      0.0606
 IR Inten    --     10.2891

 - Thermochemistry -
 -------------------
 Temperature   298.150 Kelvin.  Pressure   1.00000 Atm.
 Atom     1 has atomic number  1 and mass   1.00783

 Molecular mass:    21.01405 amu.
 Principal axes and moments of inertia in atomic units:
                           1         2         3
     Eigenvalues --     0.00000 105.62109 105.62109
           X            1.00000  -0.00000   0.00000
           Y            0.00000   1.00000   0.00000
           Z            0.00000   0.00000   1.00000
 This molecule is a prolate symmetric top.
 Rotational symmetry number  1.
 Rotational temperature (Kelvin)      0.82004
 Rotational constant (GHZ):          17.086940
    2 imaginary frequencies ignored.
 Zero-point vibrational energy       3799.4 (Joules/Mol)
                                    0.90809 (Kcal/Mol)
 Warning -- explicit consideration of   2 degrees of freedom as
           vibrations may cause significant error
 Vibrational temperatures:    456.97   456.97
          (Kelvin)

 Zero-point correction=                           0.001447 (Hartree/Particle)
 Thermal correction to Energy=                    0.004605
 Thermal correction to Enthalpy=                  0.005549
 Thermal correction to Gibbs Free Energy=        -0.019535
 Sum of electronic and zero-point Energies=           -100.771375
 Sum of electronic and thermal Energies=              -100.768218
 Sum of electronic and thermal Enthalpies=            -100.767274
 Sum of electronic and thermal Free Energies=         -100.792358

                     E (Thermal)             CV                S
                      KCal/Mol        Cal/Mol-Kelvin    Cal/Mol-Kelvin
 Total                    2.890              8.248             52.794
 Electronic               0.000              0.000              1.377
 Translational            0.889              2.981             35.068
 Rotational               0.592              1.987             13.704
 Vibrational              1.408              3.280              2.645
 Vibration     1          0.704              1.640              1.322
 Vibration     2          0.704              1.640              1.322

 Normal termination of Gaussian 16 at Fri Aug 22 17:27:05 2025.
