 Gaussian 16, Revision C.01,
 Gaussian 16:  ES64L-G16RevC.01  3-Jul-2019

 -----------------------------------------
 # sp b3lyp/6-311g** Force nosymm scf=(qc)
 -----------------------------------------

 -------------------
 Title Card Required
 -------------------
 Symbolic Z-matrix:
 Charge =  0 Multiplicity = 2

                          Input orientation:
 ---------------------------------------------------------------------
 Center     Atomic      Atomic             Coordinates (Angstroms)
 Number     Number       Type             X           Y           Z
 ---------------------------------------------------------------------
      1          1           0        0.000000    0.000000    0.000000
      2          1           0       -3.950000    0.000000    0.000000
      3          9           0        0.750000    0.000000    0.000000
 ---------------------------------------------------------------------

 SCF Done:  E(UB3LYP) =  -100.921915350     a.u. after    6 cycles

 Alpha  occ. eigenvalues --  -24.63458  -1.25483  -0.57387  -0.41199  -0.41199
 Alpha  occ. eigenvalues --   -0.33204
 Alpha virt. eigenvalues --    0.05839   0.24251   0.49305   0.93916   0.93916
 Alpha virt. eigenvalues --    0.96503   1.24218   1.24300   1.24300   1.29634
 Alpha virt. eigenvalues --    1.41697   1.41697   2.00013   2.14311   2.67694

  Beta  occ. eigenvalues --  -24.63458  -1.25482  -0.57386  -0.41199  -0.41199
  Beta virt. eigenvalues --   -0.04687   0.05986   0.39054   0.49299   0.93917
  Beta virt. eigenvalues --    0.93917   0.96499   1.29515   1.41697   1.41697
  Beta virt. eigenvalues --    1.50581   1.50790   1.50790   2.00135   2.44879

 Mulliken charges and spin densities:
               1          2
     1  H    0.268121   0.000281
     2  H    0.000320   0.999641
     3  F   -0.268442   0.000079
 Sum of Mulliken charges =   0.00000   1.00000

 Dipole moment (field-independent basis, Debye):
    X=             -1.6586    Y=              0.0000    Z=             -0.0000  Tot=              1.6586
 Quadrupole moment (field-independent basis, Debye-Ang):
   XX=             -7.4820   YY=             -6.7169   ZZ=             -6.7169
   XY=             -0.0000   XZ=             -0.0000   YZ=             -0.0000

  Exact polarizability:       4.036      -0.000       2.443      -0.000      -0.000       2.443
 Approx polarizability:       4.514      -0.000       2.423       0.000      -0.000       2.423

 ******    3 imaginary frequencies (negative Signs) ******

                      1                      2                      3
                      A                      A                      A
 Frequencies --  -2714.2018             -2714.2018               -27.9595
 Red. masses --      1.0426                 1.0426                 1.0532
 Frc consts  --      4.5255                 4.5255                 0.0005
 IR Inten    --    206.8855               206.8855                 0.0081

                      4
                      A
 Frequencies --   7586.7811
 Red. masses --      1.0583
 Frc consts  --     35.8904
 IR Inten    --    104.2933

 - Thermochemistry -
 -------------------
 Temperature   298.150 Kelvin.  Pressure   1.00000 Atm.
 Atom     1 has atomic number  1 and mass   1.00783

 Molecular mass:    21.01405 amu.
 Principal axes and moments of inertia in atomic units:
                           1         2         3
     Eigenvalues --     0.00000  76.39968  76.39968
           X            1.00000  -0.00000   0.00000
           Y            0.00000   1.00000   0.00000
           Z            0.00000   0.00000   1.00000
 This molecule is a prolate symmetric top.
 Rotational symmetry number  1.
 Rotational temperature (Kelvin)      1.13369
 Rotational constant (GHZ):          23.622365
    3 imaginary frequencies ignored.
 Zero-point vibrational energy      45379.0 (Joules/Mol)
                                   10.84585 (Kcal/Mol)
 Vibrational temperatures:  10915.69
          (Kelvin)

 Zero-point correction=                           0.017284 (Hartree/Particle)
 Thermal correction to Energy=                    0.019644
 Thermal correction to Enthalpy=                  0.020589
 Thermal correction to Gibbs Free Energy=        -0.002933
 Sum of electronic and zero-point Energies=           -100.904631
 Sum of electronic and thermal Energies=              -100.902271
 Sum of electronic and thermal Enthalpies=            -100.901327
 Sum of electronic and thermal Free Energies=         -100.924848

                     E (Thermal)             CV                S
                      KCal/Mol        Cal/Mol-Kelvin    Cal/Mol-Kelvin
 Total                   12.327              4.968             49.506
 Electronic               0.000              0.000              1.377
 Translational            0.889              2.981             35.068
 Rotational               0.592              1.987             13.060
 Vibrational             10.846              0.000              0.000

 Normal termination of Gaussian 16 at Fri Aug 22 15:49:59 2025.
