 Gaussian 16, Revision C.01,
 Gaussian 16:  ES64L-G16RevC.01  3-Jul-2019

 -----------------------------------------
 # sp b3lyp/6-311g** Force nosymm scf=(qc)
 -----------------------------------------

 -------------------
 Title Card Required
 -------------------
 Symbolic Z-matrix:
 Charge =  0 Multiplicity = 2

                          Input orientation:
 ---------------------------------------------------------------------
 Center     Atomic      Atomic             Coordinates (Angstroms)
 Number     Number       Type             X           Y           Z
 ---------------------------------------------------------------------
      1          1           0        0.000000    0.000000    0.000000
      2          1           0       -1.750000    0.000000    0.000000
      3          9           0        2.550000    0.000000    0.000000
 ---------------------------------------------------------------------

 SCF Done:  E(UB3LYP) =  -100.795823589     a.u. after   23 cycles

 Alpha  occ. eigenvalues --  -24.72624  -1.18779  -0.51756  -0.43447  -0.43447
 Alpha  occ. eigenvalues --   -0.35203
 Alpha virt. eigenvalues --   -0.12311   0.24480   0.31111   0.89584   0.93108
 Alpha virt. eigenvalues --    0.93108   1.03851   1.13744   1.22040   1.22040
 Alpha virt. eigenvalues --    1.35543   1.35543   1.62189   2.13616   2.39635

  Beta  occ. eigenvalues --  -24.69720  -1.10494  -0.40549  -0.40549  -0.35005
  Beta virt. eigenvalues --   -0.24209  -0.11650   0.26193   0.30703   0.94505
  Beta virt. eigenvalues --    0.94505   0.96292   1.06536   1.17021   1.22426
  Beta virt. eigenvalues --    1.22426   1.36304   1.36304   1.62834   2.14594

 Mulliken charges and spin densities:
               1          2
     1  H    0.034783  -0.626249
     2  H    0.035184   0.708120
     3  F   -0.069967   0.918129
 Sum of Mulliken charges =   0.00000   1.00000

 Dipole moment (field-independent basis, Debye):
    X=             -1.2034    Y=             -0.0000    Z=             -0.0000  Tot=              1.2034
 Quadrupole moment (field-independent basis, Debye-Ang):
   XX=             -7.5536   YY=             -7.6914   ZZ=             -7.6914
   XY=              0.0000   XZ=              0.0000   YZ=             -0.0000

  Exact polarizability:      63.146       0.000       2.017       0.000       0.000       2.017
 Approx polarizability:      75.853      -0.000       1.961      -0.000       0.000       1.961

 ******    2 imaginary frequencies (negative Signs) ******

                      1                      2                      3
                      A                      A                      A
 Frequencies --  -1836.7730              -355.4927               813.5711
 Red. masses --      1.0083                 1.1079                 1.0140
 Frc consts  --      2.0043                 0.0825                 0.3954
 IR Inten    --    191.1539                47.7166                 0.3140

                      4
                      A
 Frequencies --    813.5711
 Red. masses --      1.0140
 Frc consts  --      0.3954
 IR Inten    --      0.3140

 - Thermochemistry -
 -------------------
 Temperature   298.150 Kelvin.  Pressure   1.00000 Atm.
 Atom     1 has atomic number  1 and mass   1.00783

 Molecular mass:    21.01405 amu.
 Principal axes and moments of inertia in atomic units:
                           1         2         3
     Eigenvalues --     0.00000  81.84907  81.84907
           X            1.00000  -0.00000   0.00000
           Y            0.00000   1.00000   0.00000
           Z            0.00000   0.00000   1.00000
 This molecule is a prolate symmetric top.
 Rotational symmetry number  1.
 Rotational temperature (Kelvin)      1.05822
 Rotational constant (GHZ):          22.049623
    2 imaginary frequencies ignored.
 Zero-point vibrational energy       9732.5 (Joules/Mol)
                                    2.32612 (Kcal/Mol)
 Vibrational temperatures:   1170.55  1170.55
          (Kelvin)

 Zero-point correction=                           0.003707 (Hartree/Particle)
 Thermal correction to Energy=                    0.006217
 Thermal correction to Enthalpy=                  0.007161
 Thermal correction to Gibbs Free Energy=        -0.016613
 Sum of electronic and zero-point Energies=           -100.792117
 Sum of electronic and thermal Energies=              -100.789607
 Sum of electronic and thermal Enthalpies=            -100.788663
 Sum of electronic and thermal Free Energies=         -100.812436

                     E (Thermal)             CV                S
                      KCal/Mol        Cal/Mol-Kelvin    Cal/Mol-Kelvin
 Total                    3.901              6.225             50.036
 Electronic               0.000              0.000              1.377
 Translational            0.889              2.981             35.068
 Rotational               0.592              1.987             13.197
 Vibrational              2.420              1.257              0.393

 Normal termination of Gaussian 16 at Fri Aug 22 17:53:33 2025.
