 Gaussian 16, Revision C.01,
 Gaussian 16:  ES64L-G16RevC.01  3-Jul-2019

 -----------------------------------------
 # sp b3lyp/6-311g** Force nosymm scf=(qc)
 -----------------------------------------

 -------------------
 Title Card Required
 -------------------
 Symbolic Z-matrix:
 Charge =  0 Multiplicity = 2

                          Input orientation:
 ---------------------------------------------------------------------
 Center     Atomic      Atomic             Coordinates (Angstroms)
 Number     Number       Type             X           Y           Z
 ---------------------------------------------------------------------
      1          1           0        0.000000    0.000000    0.000000
      2          1           0       -1.050000    0.000000    0.000000
      3          9           0        2.700000    0.000000    0.000000
 ---------------------------------------------------------------------

 SCF Done:  E(UB3LYP) =  -100.899266712     a.u. after   59 cycles

 Alpha  occ. eigenvalues --  -24.76918  -1.22704  -0.55882  -0.47221  -0.47029
 Alpha  occ. eigenvalues --   -0.37843
 Alpha virt. eigenvalues --   -0.00192   0.22206   0.38461   0.85610   0.90478
 Alpha virt. eigenvalues --    0.93376   1.07615   1.10178   1.10190   1.34012
 Alpha virt. eigenvalues --    1.63086   1.63098   2.21682   2.36354   2.57139

  Beta  occ. eigenvalues --  -24.73754  -1.13612  -0.44093  -0.43857  -0.37794
  Beta virt. eigenvalues --   -0.26494  -0.00150   0.22239   0.38565   0.91975
  Beta virt. eigenvalues --    0.95059   0.95229   1.10181   1.10189   1.11274
  Beta virt. eigenvalues --    1.34017   1.63084   1.63096   2.21688   2.36360

 Mulliken charges and spin densities:
               1          2
     1  H   -0.003152  -0.000756
     2  H   -0.009199  -0.001005
     3  F    0.012351   1.001761
 Sum of Mulliken charges =  -0.00000   1.00000

 Dipole moment (field-independent basis, Debye):
    X=              0.1513    Y=              0.0000    Z=             -0.0000  Tot=              0.1513
 Quadrupole moment (field-independent basis, Debye-Ang):
   XX=             -6.0934   YY=             -7.3389   ZZ=             -6.4838
   XY=             -0.0000   XZ=              0.0000   YZ=             -0.0588

  Exact polarizability:      13.816      -0.000       2.082       0.000      -0.031       2.532
 Approx polarizability:      18.359      -0.000       2.131       0.000      -0.039       2.699

                      1                      2                      3
                      A                      A                      A
 Frequencies --    104.2420              1411.6934              1534.5587
 Red. masses --      1.1085                 1.0078                 1.0104
 Frc consts  --      0.0071                 1.1834                 1.4019
 IR Inten    --      0.9873                 2.8488                 0.0037

                      4
                      A
 Frequencies --   1542.1653
 Red. masses --      1.0104
 Frc consts  --      1.4159
 IR Inten    --      0.0015

 - Thermochemistry -
 -------------------
 Temperature   298.150 Kelvin.  Pressure   1.00000 Atm.
 Atom     1 has atomic number  1 and mass   1.00783

 Molecular mass:    21.01405 amu.
 Principal axes and moments of inertia in atomic units:
                           1         2         3
     Eigenvalues --     0.00000  69.66695  69.66695
           X            1.00000  -0.00000   0.00000
           Y            0.00000   1.00000   0.00000
           Z            0.00000   0.00000   1.00000
 This molecule is a prolate symmetric top.
 Rotational symmetry number  1.
 Rotational temperature (Kelvin)      1.24326
 Rotational constant (GHZ):          25.905271
 Zero-point vibrational energy      27470.2 (Joules/Mol)
                                    6.56554 (Kcal/Mol)
 Warning -- explicit consideration of   1 degrees of freedom as
           vibrations may cause significant error
 Vibrational temperatures:    149.98  2031.11  2207.89  2218.83
          (Kelvin)

 Zero-point correction=                           0.010463 (Hartree/Particle)
 Thermal correction to Energy=                    0.013565
 Thermal correction to Enthalpy=                  0.014509
 Thermal correction to Gibbs Free Energy=        -0.010546
 Sum of electronic and zero-point Energies=           -100.888804
 Sum of electronic and thermal Energies=              -100.885701
 Sum of electronic and thermal Enthalpies=            -100.884757
 Sum of electronic and thermal Free Energies=         -100.909812

                     E (Thermal)             CV                S
                      KCal/Mol        Cal/Mol-Kelvin    Cal/Mol-Kelvin
 Total                    8.512              7.146             52.733
 Electronic               0.000              0.000              1.377
 Translational            0.889              2.981             35.068
 Rotational               0.592              1.987             12.877
 Vibrational              7.031              2.178              3.411
 Vibration     1          0.605              1.946              3.373

 Normal termination of Gaussian 16 at Fri Aug 22 18:19:47 2025.
