 Gaussian 16, Revision C.01,
 Gaussian 16:  ES64L-G16RevC.01  3-Jul-2019

 -----------------------------------------
 # sp b3lyp/6-311g** Force nosymm scf=(qc)
 -----------------------------------------

 -------------------
 Title Card Required
 -------------------
 Symbolic Z-matrix:
 Charge =  0 Multiplicity = 2

                          Input orientation:
 ---------------------------------------------------------------------
 Center     Atomic      Atomic             Coordinates (Angstroms)
 Number     Number       Type             X           Y           Z
 ---------------------------------------------------------------------
      1          1           0        0.000000    0.000000    0.000000
      2          1           0       -3.250000    0.000000    0.000000
      3          9           0        2.100000    0.000000    0.000000
 ---------------------------------------------------------------------

 SCF Done:  E(UB3LYP) =  -100.780733846     a.u. after   19 cycles

 Alpha  occ. eigenvalues --  -24.66373  -1.08174  -0.37835  -0.37835  -0.37391
 Alpha  occ. eigenvalues --   -0.33344
 Alpha virt. eigenvalues --   -0.21298   0.20611   0.27865   0.90646   0.95691
 Alpha virt. eigenvalues --    0.95691   1.08300   1.21608   1.21608   1.24049
 Alpha virt. eigenvalues --    1.24049   1.24267   1.47607   2.11932   2.14728

  Beta  occ. eigenvalues --  -24.68877  -1.15208  -0.47898  -0.40311  -0.40311
  Beta virt. eigenvalues --   -0.13429  -0.04854   0.30495   0.39774   0.88637
  Beta virt. eigenvalues --    0.94807   0.94807   1.06089   1.36516   1.36516
  Beta virt. eigenvalues --    1.47368   1.47368   1.47646   1.56098   2.31297

 Mulliken charges and spin densities:
               1          2
     1  H    0.167617   0.790182
     2  H    0.002434   0.997631
     3  F   -0.170051  -0.787812
 Sum of Mulliken charges =   0.00000   1.00000

 Dipole moment (field-independent basis, Debye):
    X=             -1.8154    Y=             -0.0000    Z=              0.0000  Tot=              1.8154
 Quadrupole moment (field-independent basis, Debye-Ang):
   XX=             -9.9708   YY=             -7.4976   ZZ=             -7.4976
   XY=             -0.0000   XZ=              0.0000   YZ=              0.0000

  Exact polarizability:      29.196      -0.000       2.050       0.000       0.000       2.050
 Approx polarizability:      40.965      -0.000       1.938       0.000      -0.000       1.938

 ******    1 imaginary frequencies (negative Signs) ******

                      1                      2                      3
                      A                      A                      A
 Frequencies --   -970.3572                93.7643               408.8824
 Red. masses --      1.0599                 1.0517                 1.0240
 Frc consts  --      0.5880                 0.0054                 0.1009
 IR Inten    --     98.6561                 0.7489                26.0213

                      4
                      A
 Frequencies --    408.8824
 Red. masses --      1.0240
 Frc consts  --      0.1009
 IR Inten    --     26.0213

 - Thermochemistry -
 -------------------
 Temperature   298.150 Kelvin.  Pressure   1.00000 Atm.
 Atom     1 has atomic number  1 and mass   1.00783

 Molecular mass:    21.01405 amu.
 Principal axes and moments of inertia in atomic units:
                           1         2         3
     Eigenvalues --     0.00000 109.30413 109.30413
           X            1.00000  -0.00000   0.00000
           Y            0.00000   1.00000   0.00000
           Z            0.00000   0.00000   1.00000
 This molecule is a prolate symmetric top.
 Rotational symmetry number  1.
 Rotational temperature (Kelvin)      0.79241
 Rotational constant (GHZ):          16.511189
    1 imaginary frequencies ignored.
 Zero-point vibrational energy       5452.2 (Joules/Mol)
                                    1.30310 (Kcal/Mol)
 Warning -- explicit consideration of   3 degrees of freedom as
           vibrations may cause significant error
 Vibrational temperatures:    134.91   588.29   588.29
          (Kelvin)

 Zero-point correction=                           0.002077 (Hartree/Particle)
 Thermal correction to Energy=                    0.005785
 Thermal correction to Enthalpy=                  0.006730
 Thermal correction to Gibbs Free Energy=        -0.019716
 Sum of electronic and zero-point Energies=           -100.778657
 Sum of electronic and thermal Energies=              -100.774949
 Sum of electronic and thermal Enthalpies=            -100.774004
 Sum of electronic and thermal Free Energies=         -100.800449

                     E (Thermal)             CV                S
                      KCal/Mol        Cal/Mol-Kelvin    Cal/Mol-Kelvin
 Total                    3.630              9.824             55.658
 Electronic               0.000              0.000              1.377
 Translational            0.889              2.981             35.068
 Rotational               0.592              1.987             13.772
 Vibrational              2.149              4.856              5.441
 Vibration     1          0.603              1.954              3.580
 Vibration     2          0.773              1.451              0.931
 Vibration     3          0.773              1.451              0.931

 Normal termination of Gaussian 16 at Fri Aug 22 17:05:04 2025.
