 Gaussian 16, Revision C.01,
 Gaussian 16:  ES64L-G16RevC.01  3-Jul-2019

 -----------------------------------------
 # sp b3lyp/6-311g** Force nosymm scf=(qc)
 -----------------------------------------

 -------------------
 Title Card Required
 -------------------
 Symbolic Z-matrix:
 Charge =  0 Multiplicity = 2

                          Input orientation:
 ---------------------------------------------------------------------
 Center     Atomic      Atomic             Coordinates (Angstroms)
 Number     Number       Type             X           Y           Z
 ---------------------------------------------------------------------
      1          1           0        0.000000    0.000000    0.000000
      2          1           0       -3.250000    0.000000    0.000000
      3          9           0        2.850000    0.000000    0.000000
 ---------------------------------------------------------------------

 SCF Done:  E(UB3LYP) =  -100.762599704     a.u. after   20 cycles

 Alpha  occ. eigenvalues --  -24.73505  -1.19606  -0.52622  -0.44188  -0.44188
 Alpha  occ. eigenvalues --   -0.32719
 Alpha virt. eigenvalues --   -0.09032   0.24158   0.35526   0.89835   0.92621
 Alpha virt. eigenvalues --    0.92621   1.04812   1.24800   1.24800   1.25198
 Alpha virt. eigenvalues --    1.42758   1.42758   1.43346   2.15072   2.38627

  Beta  occ. eigenvalues --  -24.70519  -1.11063  -0.41203  -0.41203  -0.34146
  Beta virt. eigenvalues --   -0.24439  -0.07097   0.24296   0.37410   0.94068
  Beta virt. eigenvalues --    0.94068   0.98243   1.08369   1.23186   1.23186
  Beta virt. eigenvalues --    1.24487   1.45227   1.45460   1.45460   2.15036

 Mulliken charges and spin densities:
               1          2
     1  H    0.048291  -0.941672
     2  H    0.001069   0.996141
     3  F   -0.049360   0.945530
 Sum of Mulliken charges =  -0.00000   1.00000

 Dipole moment (field-independent basis, Debye):
    X=             -0.7382    Y=             -0.0000    Z=             -0.0000  Tot=              0.7382
 Quadrupole moment (field-independent basis, Debye-Ang):
   XX=             -8.5653   YY=             -7.6064   ZZ=             -7.6064
   XY=             -0.0000   XZ=             -0.0000   YZ=             -0.0000

  Exact polarizability:      33.563      -0.000       2.023      -0.000      -0.000       2.023
 Approx polarizability:      36.110      -0.000       1.923      -0.000       0.000       1.923

 ******    2 imaginary frequencies (negative Signs) ******

                      1                      2                      3
                      A                      A                      A
 Frequencies --   -454.2453              -155.6405               166.5553
 Red. masses --      1.0429                 1.0690                 1.0196
 Frc consts  --      0.1268                 0.0153                 0.0167
 IR Inten    --     49.5909                 1.6215                 2.1579

                      4
                      A
 Frequencies --    166.5553
 Red. masses --      1.0196
 Frc consts  --      0.0167
 IR Inten    --      2.1579

 - Thermochemistry -
 -------------------
 Temperature   298.150 Kelvin.  Pressure   1.00000 Atm.
 Atom     1 has atomic number  1 and mass   1.00783

 Molecular mass:    21.01405 amu.
 Principal axes and moments of inertia in atomic units:
                           1         2         3
     Eigenvalues --     0.00000 149.32581 149.32581
           X            1.00000  -0.00000   0.00000
           Y            0.00000   1.00000   0.00000
           Z            0.00000   0.00000   1.00000
 This molecule is a prolate symmetric top.
 Rotational symmetry number  1.
 Rotational temperature (Kelvin)      0.58003
 Rotational constant (GHZ):          12.085930
    2 imaginary frequencies ignored.
 Zero-point vibrational energy       1992.4 (Joules/Mol)
                                    0.47621 (Kcal/Mol)
 Warning -- explicit consideration of   2 degrees of freedom as
           vibrations may cause significant error
 Vibrational temperatures:    239.64   239.64
          (Kelvin)

 Zero-point correction=                           0.000759 (Hartree/Particle)
 Thermal correction to Energy=                    0.004349
 Thermal correction to Enthalpy=                  0.005294
 Thermal correction to Gibbs Free Energy=        -0.021212
 Sum of electronic and zero-point Energies=           -100.761841
 Sum of electronic and thermal Energies=              -100.758250
 Sum of electronic and thermal Enthalpies=            -100.757306
 Sum of electronic and thermal Free Energies=         -100.783812

                     E (Thermal)             CV                S
                      KCal/Mol        Cal/Mol-Kelvin    Cal/Mol-Kelvin
 Total                    2.729              8.735             55.785
 Electronic               0.000              0.000              1.377
 Translational            0.889              2.981             35.068
 Rotational               0.592              1.987             14.392
 Vibrational              1.248              3.767              4.948
 Vibration     1          0.624              1.884              2.474
 Vibration     2          0.624              1.884              2.474

 Normal termination of Gaussian 16 at Fri Aug 22 18:54:40 2025.
