 Gaussian 16, Revision C.01,
 Gaussian 16:  ES64L-G16RevC.01  3-Jul-2019

 -----------------------------------------
 # sp b3lyp/6-311g** Force nosymm scf=(qc)
 -----------------------------------------

 -------------------
 Title Card Required
 -------------------
 Symbolic Z-matrix:
 Charge =  0 Multiplicity = 2

                          Input orientation:
 ---------------------------------------------------------------------
 Center     Atomic      Atomic             Coordinates (Angstroms)
 Number     Number       Type             X           Y           Z
 ---------------------------------------------------------------------
      1          1           0        0.000000    0.000000    0.000000
      2          1           0       -1.700000    0.000000    0.000000
      3          9           0        3.400000    0.000000    0.000000
 ---------------------------------------------------------------------

 SCF Done:  E(UB3LYP) =  -100.795040983     a.u. after   48 cycles

 Alpha  occ. eigenvalues --  -24.75871  -1.21794  -0.54978  -0.46195  -0.46183
 Alpha  occ. eigenvalues --   -0.33403
 Alpha virt. eigenvalues --   -0.10885   0.25524   0.30579   0.87172   0.91144
 Alpha virt. eigenvalues --    0.91705   1.01801   1.07281   1.23497   1.23497
 Alpha virt. eigenvalues --    1.37915   1.37917   1.67473   2.16634   2.41714

  Beta  occ. eigenvalues --  -24.72740  -1.12796  -0.43064  -0.43045  -0.33362
  Beta virt. eigenvalues --   -0.25840  -0.10803   0.25531   0.30836   0.92638
  Beta virt. eigenvalues --    0.92975   0.96613   1.05841   1.07332   1.23531
  Beta virt. eigenvalues --    1.23533   1.38003   1.38004   1.67616   2.17106

 Mulliken charges and spin densities:
               1          2
     1  H   -0.000170  -0.609791
     2  H    0.005386   0.617347
     3  F   -0.005216   0.992444
 Sum of Mulliken charges =   0.00000   1.00000

 Dipole moment (field-independent basis, Debye):
    X=             -0.1404    Y=             -0.0003    Z=              0.0012  Tot=              0.1404
 Quadrupole moment (field-independent basis, Debye-Ang):
   XX=             -6.3113   YY=             -7.7511   ZZ=             -7.4873
   XY=             -0.0852   XZ=              0.3972   YZ=             -0.0593

  Exact polarizability:      55.418      -0.185       2.016       0.196      -0.034       2.165
 Approx polarizability:      48.397      -0.046       1.986       0.216      -0.040       2.164

 ******    2 imaginary frequencies (negative Signs) ******

                      1                      2                      3
                      A                      A                      A
 Frequencies --  -1926.9877              -130.6889               902.1117
 Red. masses --      1.0078                 1.1085                 1.0117
 Frc consts  --      2.2049                 0.0112                 0.4851
 IR Inten    --     97.2781                11.1198                 0.2479

                      4
                      A
 Frequencies --    902.5628
 Red. masses --      1.0117
 Frc consts  --      0.4856
 IR Inten    --      0.0873

 - Thermochemistry -
 -------------------
 Temperature   298.150 Kelvin.  Pressure   1.00000 Atm.
 Atom     1 has atomic number  1 and mass   1.00783

 Molecular mass:    21.01405 amu.
 Principal axes and moments of inertia in atomic units:
                           1         2         3
     Eigenvalues --     0.00000 122.74390 122.74390
           X            1.00000  -0.00000   0.00000
           Y            0.00000   1.00000   0.00000
           Z            0.00000   0.00000   1.00000
 This molecule is a prolate symmetric top.
 Rotational symmetry number  1.
 Rotational temperature (Kelvin)      0.70565
 Rotational constant (GHZ):          14.703307
    2 imaginary frequencies ignored.
 Zero-point vibrational energy      10794.4 (Joules/Mol)
                                    2.57991 (Kcal/Mol)
 Vibrational temperatures:   1297.94  1298.59
          (Kelvin)

 Zero-point correction=                           0.004111 (Hartree/Particle)
 Thermal correction to Energy=                    0.006579
 Thermal correction to Enthalpy=                  0.007523
 Thermal correction to Gibbs Free Energy=        -0.016578
 Sum of electronic and zero-point Energies=           -100.790930
 Sum of electronic and thermal Energies=              -100.788462
 Sum of electronic and thermal Enthalpies=            -100.787518
 Sum of electronic and thermal Free Energies=         -100.811619

                     E (Thermal)             CV                S
                      KCal/Mol        Cal/Mol-Kelvin    Cal/Mol-Kelvin
 Total                    4.128              5.962             50.724
 Electronic               0.000              0.000              1.377
 Translational            0.889              2.981             35.068
 Rotational               0.592              1.987             14.002
 Vibrational              2.647              0.994              0.277

 Normal termination of Gaussian 16 at Fri Aug 22 21:16:06 2025.
