 Gaussian 16, Revision C.01,
 Gaussian 16:  ES64L-G16RevC.01  3-Jul-2019

 -----------------------------------------
 # sp b3lyp/6-311g** Force nosymm scf=(qc)
 -----------------------------------------

 -------------------
 Title Card Required
 -------------------
 Symbolic Z-matrix:
 Charge =  0 Multiplicity = 2

                          Input orientation:
 ---------------------------------------------------------------------
 Center     Atomic      Atomic             Coordinates (Angstroms)
 Number     Number       Type             X           Y           Z
 ---------------------------------------------------------------------
      1          1           0        0.000000    0.000000    0.000000
      2          1           0       -3.600000    0.000000    0.000000
      3          9           0        3.150000    0.000000    0.000000
 ---------------------------------------------------------------------

 SCF Done:  E(UB3LYP) =  -100.760145000     a.u. after   23 cycles

 Alpha  occ. eigenvalues --  -24.74573  -1.20597  -0.53693  -0.45083  -0.45083
 Alpha  occ. eigenvalues --   -0.32448
 Alpha virt. eigenvalues --   -0.07579   0.24054   0.36418   0.88841   0.91981
 Alpha virt. eigenvalues --    0.91981   1.03103   1.25055   1.25055   1.25162
 Alpha virt. eigenvalues --    1.44632   1.44632   1.44886   2.14763   2.40887

  Beta  occ. eigenvalues --  -24.71512  -1.11816  -0.42018  -0.42018  -0.33391
  Beta virt. eigenvalues --   -0.25048  -0.06377   0.23884   0.37995   0.93453
  Beta virt. eigenvalues --    0.93453   0.97703   1.06938   1.23968   1.23968
  Beta virt. eigenvalues --    1.24156   1.46041   1.46273   1.46273   2.15036

 Mulliken charges and spin densities:
               1          2
     1  H    0.026968  -0.968534
     2  H    0.000271   0.998377
     3  F   -0.027239   0.970157
 Sum of Mulliken charges =  -0.00000   1.00000

 Dipole moment (field-independent basis, Debye):
    X=             -0.4455    Y=              0.0000    Z=             -0.0000  Tot=              0.4455
 Quadrupole moment (field-independent basis, Debye-Ang):
   XX=             -8.0169   YY=             -7.6136   ZZ=             -7.6136
   XY=             -0.0000   XZ=             -0.0000   YZ=             -0.0000

  Exact polarizability:      30.256      -0.000       2.028      -0.000      -0.000       2.028
 Approx polarizability:      28.509      -0.000       1.929      -0.000       0.000       1.929

 ******    2 imaginary frequencies (negative Signs) ******

                      1                      2                      3
                      A                      A                      A
 Frequencies --   -320.7385              -104.4030               109.4959
 Red. masses --      1.0450                 1.0668                 1.0196
 Frc consts  --      0.0633                 0.0069                 0.0072
 IR Inten    --     29.2098                 0.5745                 0.6774

                      4
                      A
 Frequencies --    109.4959
 Red. masses --      1.0196
 Frc consts  --      0.0072
 IR Inten    --      0.6774

 - Thermochemistry -
 -------------------
 Temperature   298.150 Kelvin.  Pressure   1.00000 Atm.
 Atom     1 has atomic number  1 and mass   1.00783

 Molecular mass:    21.01405 amu.
 Principal axes and moments of inertia in atomic units:
                           1         2         3
     Eigenvalues --     0.00000 182.77379 182.77379
           X            1.00000  -0.00000   0.00000
           Y            0.00000   1.00000   0.00000
           Z            0.00000   0.00000   1.00000
 This molecule is a prolate symmetric top.
 Rotational symmetry number  1.
 Rotational temperature (Kelvin)      0.47389
 Rotational constant (GHZ):           9.874180
    2 imaginary frequencies ignored.
 Zero-point vibrational energy       1309.9 (Joules/Mol)
                                    0.31306 (Kcal/Mol)
 Warning -- explicit consideration of   2 degrees of freedom as
           vibrations may cause significant error
 Vibrational temperatures:    157.54   157.54
          (Kelvin)

 Zero-point correction=                           0.000499 (Hartree/Particle)
 Thermal correction to Energy=                    0.004293
 Thermal correction to Enthalpy=                  0.005237
 Thermal correction to Gibbs Free Energy=        -0.022223
 Sum of electronic and zero-point Energies=           -100.759646
 Sum of electronic and thermal Energies=              -100.755852
 Sum of electronic and thermal Enthalpies=            -100.754908
 Sum of electronic and thermal Free Energies=         -100.782368

                     E (Thermal)             CV                S
                      KCal/Mol        Cal/Mol-Kelvin    Cal/Mol-Kelvin
 Total                    2.694              8.851             57.795
 Electronic               0.000              0.000              1.377
 Translational            0.889              2.981             35.068
 Rotational               0.592              1.987             14.794
 Vibrational              1.212              3.883              6.556
 Vibration     1          0.606              1.942              3.278
 Vibration     2          0.606              1.942              3.278

 Normal termination of Gaussian 16 at Fri Aug 22 20:11:53 2025.
