 Gaussian 16, Revision C.01,
 Gaussian 16:  ES64L-G16RevC.01  3-Jul-2019

 -----------------------------------------
 # sp b3lyp/6-311g** Force nosymm scf=(qc)
 -----------------------------------------

 -------------------
 Title Card Required
 -------------------
 Symbolic Z-matrix:
 Charge =  0 Multiplicity = 2

                          Input orientation:
 ---------------------------------------------------------------------
 Center     Atomic      Atomic             Coordinates (Angstroms)
 Number     Number       Type             X           Y           Z
 ---------------------------------------------------------------------
      1          1           0        0.000000    0.000000    0.000000
      2          1           0       -1.800000    0.000000    0.000000
      3          9           0        1.850000    0.000000    0.000000
 ---------------------------------------------------------------------

 SCF Done:  E(UB3LYP) =  -100.819767763     a.u. after   16 cycles

 Alpha  occ. eigenvalues --  -24.67102  -1.13457  -0.46437  -0.38804  -0.38804
 Alpha  occ. eigenvalues --   -0.37594
 Alpha virt. eigenvalues --   -0.12592   0.23030   0.30030   0.87702   0.94835
 Alpha virt. eigenvalues --    0.94835   1.03817   1.19879   1.19879   1.30831
 Alpha virt. eigenvalues --    1.34433   1.34433   1.70379   2.13325   2.34002

  Beta  occ. eigenvalues --  -24.64931  -1.07438  -0.38245  -0.36676  -0.36676
  Beta virt. eigenvalues --   -0.21500  -0.10611   0.25671   0.30436   0.90446
  Beta virt. eigenvalues --    0.95254   0.95254   1.07758   1.23685   1.23685
  Beta virt. eigenvalues --    1.35278   1.35278   1.38564   1.70329   2.14303

 Mulliken charges and spin densities:
               1          2
     1  H    0.163878  -0.500606
     2  H    0.059383   0.819594
     3  F   -0.223261   0.681012
 Sum of Mulliken charges =   0.00000   1.00000

 Dipole moment (field-independent basis, Debye):
    X=             -2.5473    Y=              0.0000    Z=             -0.0000  Tot=              2.5473
 Quadrupole moment (field-independent basis, Debye-Ang):
   XX=             -8.4924   YY=             -7.4919   ZZ=             -7.4919
   XY=              0.0000   XZ=             -0.0000   YZ=             -0.0000

  Exact polarizability:      48.253       0.000       2.112      -0.000      -0.000       2.112
 Approx polarizability:      63.966       0.000       2.028      -0.000       0.000       2.028

 ******    2 imaginary frequencies (negative Signs) ******

                      1                      2                      3
                      A                      A                      A
 Frequencies --  -1966.4269              -617.4523               811.8891
 Red. masses --      1.0194                 1.0948                 1.0176
 Frc consts  --      2.3225                 0.2459                 0.3952
 IR Inten    --    237.4876                17.6938                14.3304

                      4
                      A
 Frequencies --    811.8891
 Red. masses --      1.0176
 Frc consts  --      0.3952
 IR Inten    --     14.3304

 - Thermochemistry -
 -------------------
 Temperature   298.150 Kelvin.  Pressure   1.00000 Atm.
 Atom     1 has atomic number  1 and mass   1.00783

 Molecular mass:    21.01405 amu.
 Principal axes and moments of inertia in atomic units:
                           1         2         3
     Eigenvalues --     0.00000  55.04404  55.04404
           X            1.00000  -0.00000   0.00000
           Y            0.00000   1.00000   0.00000
           Z            0.00000   0.00000   1.00000
 This molecule is a prolate symmetric top.
 Rotational symmetry number  1.
 Rotational temperature (Kelvin)      1.57354
 Rotational constant (GHZ):          32.787224
    2 imaginary frequencies ignored.
 Zero-point vibrational energy       9712.4 (Joules/Mol)
                                    2.32131 (Kcal/Mol)
 Vibrational temperatures:   1168.13  1168.13
          (Kelvin)

 Zero-point correction=                           0.003699 (Hartree/Particle)
 Thermal correction to Energy=                    0.006210
 Thermal correction to Enthalpy=                  0.007154
 Thermal correction to Gibbs Free Energy=        -0.016246
 Sum of electronic and zero-point Energies=           -100.816069
 Sum of electronic and thermal Energies=              -100.813558
 Sum of electronic and thermal Enthalpies=            -100.812614
 Sum of electronic and thermal Free Energies=         -100.836014

                     E (Thermal)             CV                S
                      KCal/Mol        Cal/Mol-Kelvin    Cal/Mol-Kelvin
 Total                    3.897              6.231             49.250
 Electronic               0.000              0.000              1.377
 Translational            0.889              2.981             35.068
 Rotational               0.592              1.987             12.409
 Vibrational              2.415              1.263              0.396

 Normal termination of Gaussian 16 at Fri Aug 22 16:46:32 2025.
