 Gaussian 16, Revision C.01,
 Gaussian 16:  ES64L-G16RevC.01  3-Jul-2019

 -----------------------------------------
 # sp b3lyp/6-311g** Force nosymm scf=(qc)
 -----------------------------------------

 -------------------
 Title Card Required
 -------------------
 Symbolic Z-matrix:
 Charge =  0 Multiplicity = 2

                          Input orientation:
 ---------------------------------------------------------------------
 Center     Atomic      Atomic             Coordinates (Angstroms)
 Number     Number       Type             X           Y           Z
 ---------------------------------------------------------------------
      1          1           0        0.000000    0.000000    0.000000
      2          1           0       -3.700000    0.000000    0.000000
      3          9           0        1.000000    0.000000    0.000000
 ---------------------------------------------------------------------

 SCF Done:  E(UB3LYP) =  -100.966127944     a.u. after    6 cycles

 Alpha  occ. eigenvalues --  -24.64192  -1.16065  -0.51660  -0.38811  -0.38811
 Alpha  occ. eigenvalues --   -0.33546
 Alpha virt. eigenvalues --    0.00551   0.23640   0.34636   0.94030   0.94030
 Alpha virt. eigenvalues --    0.98565   1.23878   1.23964   1.23964   1.29169
 Alpha virt. eigenvalues --    1.35916   1.35916   1.90000   2.14057   2.33817

  Beta  occ. eigenvalues --  -24.64191  -1.16062  -0.51657  -0.38810  -0.38810
  Beta virt. eigenvalues --   -0.05469   0.01003   0.33255   0.39674   0.94030
  Beta virt. eigenvalues --    0.94030   0.98566   1.29088   1.35915   1.35915
  Beta virt. eigenvalues --    1.50144   1.50527   1.50527   1.90046   2.33515

 Mulliken charges and spin densities:
               1          2
     1  H    0.320121   0.000366
     2  H    0.000650   0.999262
     3  F   -0.320771   0.000372
 Sum of Mulliken charges =   0.00000   1.00000

 Dipole moment (field-independent basis, Debye):
    X=             -2.0317    Y=              0.0000    Z=              0.0000  Tot=              2.0317
 Quadrupole moment (field-independent basis, Debye-Ang):
   XX=             -8.2477   YY=             -6.9622   ZZ=             -6.9622
   XY=             -0.0000   XZ=              0.0000   YZ=              0.0000

  Exact polarizability:       6.512       0.000       2.397      -0.000       0.000       2.397
 Approx polarizability:       8.054       0.000       2.369       0.000      -0.000       2.369

 ******    1 imaginary frequencies (negative Signs) ******

                      1                      2                      3
                      A                      A                      A
 Frequencies --    -42.5665               985.7661               985.7661
 Red. masses --      1.0532                 1.0378                 1.0378
 Frc consts  --      0.0011                 0.5942                 0.5942
 IR Inten    --      0.0288               169.9813               169.9813

                      4
                      A
 Frequencies --   3027.2371
 Red. masses --      1.0583
 Frc consts  --      5.7143
 IR Inten    --     87.7868

 - Thermochemistry -
 -------------------
 Temperature   298.150 Kelvin.  Pressure   1.00000 Atm.
 Atom     1 has atomic number  1 and mass   1.00783

 Molecular mass:    21.01405 amu.
 Principal axes and moments of inertia in atomic units:
                           1         2         3
     Eigenvalues --     0.00000  77.49311  77.49311
           X            1.00000  -0.00000   0.00000
           Y            0.00000   1.00000   0.00000
           Z            0.00000   0.00000   1.00000
 This molecule is a prolate symmetric top.
 Rotational symmetry number  1.
 Rotational temperature (Kelvin)      1.11770
 Rotational constant (GHZ):          23.289054
    1 imaginary frequencies ignored.
 Zero-point vibrational energy      29899.3 (Joules/Mol)
                                    7.14610 (Kcal/Mol)
 Vibrational temperatures:   1418.30  1418.30  4355.52
          (Kelvin)

 Zero-point correction=                           0.011388 (Hartree/Particle)
 Thermal correction to Energy=                    0.013826
 Thermal correction to Enthalpy=                  0.014771
 Thermal correction to Gibbs Free Energy=        -0.008859
 Sum of electronic and zero-point Energies=           -100.954740
 Sum of electronic and thermal Energies=              -100.952302
 Sum of electronic and thermal Enthalpies=            -100.951357
 Sum of electronic and thermal Free Energies=         -100.974987

                     E (Thermal)             CV                S
                      KCal/Mol        Cal/Mol-Kelvin    Cal/Mol-Kelvin
 Total                    8.676              5.754             49.732
 Electronic               0.000              0.000              1.377
 Translational            0.889              2.981             35.068
 Rotational               0.592              1.987             13.088
 Vibrational              7.195              0.786              0.198

 Normal termination of Gaussian 16 at Fri Aug 22 16:01:39 2025.
