 Gaussian 16, Revision C.01,
 Gaussian 16:  ES64L-G16RevC.01  3-Jul-2019

 -----------------------------------------
 # sp b3lyp/6-311g** Force nosymm scf=(qc)
 -----------------------------------------

 -------------------
 Title Card Required
 -------------------
 Symbolic Z-matrix:
 Charge =  0 Multiplicity = 2

                          Input orientation:
 ---------------------------------------------------------------------
 Center     Atomic      Atomic             Coordinates (Angstroms)
 Number     Number       Type             X           Y           Z
 ---------------------------------------------------------------------
      1          1           0        0.000000    0.000000    0.000000
      2          1           0       -3.400000    0.000000    0.000000
      3          9           0        1.900000    0.000000    0.000000
 ---------------------------------------------------------------------

 SCF Done:  E(UB3LYP) =  -100.794961239     a.u. after   13 cycles

 Alpha  occ. eigenvalues --  -24.67428  -1.13706  -0.46333  -0.39073  -0.39073
 Alpha  occ. eigenvalues --   -0.33660
 Alpha virt. eigenvalues --   -0.14393   0.22069   0.31047   0.90395   0.94872
 Alpha virt. eigenvalues --    0.94872   1.05718   1.23859   1.23859   1.24015
 Alpha virt. eigenvalues --    1.34485   1.34485   1.65279   2.13946   2.27841

  Beta  occ. eigenvalues --  -24.65250  -1.07659  -0.38600  -0.36936  -0.36936
  Beta virt. eigenvalues --   -0.20053  -0.07242   0.22385   0.37715   0.91320
  Beta virt. eigenvalues --    0.95202   0.95202   1.08093   1.22662   1.22662
  Beta virt. eigenvalues --    1.45116   1.45586   1.45586   1.59374   2.12183

 Mulliken charges and spin densities:
               1          2
     1  H    0.221225  -0.681605
     2  H    0.002315   0.996859
     3  F   -0.223539   0.684746
 Sum of Mulliken charges =   0.00000   1.00000

 Dipole moment (field-independent basis, Debye):
    X=             -2.1225    Y=             -0.0000    Z=              0.0000  Tot=              2.1225
 Quadrupole moment (field-independent basis, Debye-Ang):
   XX=            -10.0734   YY=             -7.4675   ZZ=             -7.4675
   XY=              0.0000   XZ=             -0.0000   YZ=              0.0000

  Exact polarizability:      25.291       0.000       2.077      -0.000      -0.000       2.077
 Approx polarizability:      37.144      -0.000       1.964       0.000      -0.000       1.964

 ******    2 imaginary frequencies (negative Signs) ******

                      1                      2                      3
                      A                      A                      A
 Frequencies --  -1309.2652              -134.0632               558.4509
 Red. masses --      1.0571                 1.0545                 1.0263
 Frc consts  --      1.0676                 0.0112                 0.1886
 IR Inten    --    127.5613                 0.4549                45.2808

                      4
                      A
 Frequencies --    558.4509
 Red. masses --      1.0263
 Frc consts  --      0.1886
 IR Inten    --     45.2808

 - Thermochemistry -
 -------------------
 Temperature   298.150 Kelvin.  Pressure   1.00000 Atm.
 Atom     1 has atomic number  1 and mass   1.00783

 Molecular mass:    21.01405 amu.
 Principal axes and moments of inertia in atomic units:
                           1         2         3
     Eigenvalues --     0.00000 105.14063 105.14063
           X            1.00000  -0.00000   0.00000
           Y            0.00000   1.00000   0.00000
           Z            0.00000   0.00000   1.00000
 This molecule is a prolate symmetric top.
 Rotational symmetry number  1.
 Rotational temperature (Kelvin)      0.82379
 Rotational constant (GHZ):          17.165022
    2 imaginary frequencies ignored.
 Zero-point vibrational energy       6680.6 (Joules/Mol)
                                    1.59669 (Kcal/Mol)
 Warning -- explicit consideration of   2 degrees of freedom as
           vibrations may cause significant error
 Vibrational temperatures:    803.49   803.49
          (Kelvin)

 Zero-point correction=                           0.002544 (Hartree/Particle)
 Thermal correction to Energy=                    0.005274
 Thermal correction to Enthalpy=                  0.006218
 Thermal correction to Gibbs Free Energy=        -0.018106
 Sum of electronic and zero-point Energies=           -100.792417
 Sum of electronic and thermal Energies=              -100.789688
 Sum of electronic and thermal Enthalpies=            -100.788743
 Sum of electronic and thermal Free Energies=         -100.813067

                     E (Thermal)             CV                S
                      KCal/Mol        Cal/Mol-Kelvin    Cal/Mol-Kelvin
 Total                    3.309              7.210             51.194
 Electronic               0.000              0.000              1.377
 Translational            0.889              2.981             35.068
 Rotational               0.592              1.987             13.695
 Vibrational              1.828              2.242              1.054
 Vibration     1          0.914              1.121              0.527
 Vibration     2          0.914              1.121              0.527

 Normal termination of Gaussian 16 at Fri Aug 22 16:51:13 2025.
