 Gaussian 16, Revision C.01,
 Gaussian 16:  ES64L-G16RevC.01  3-Jul-2019

 -----------------------------------------
 # sp b3lyp/6-311g** Force nosymm scf=(qc)
 -----------------------------------------

 -------------------
 Title Card Required
 -------------------
 Symbolic Z-matrix:
 Charge =  0 Multiplicity = 2

                          Input orientation:
 ---------------------------------------------------------------------
 Center     Atomic      Atomic             Coordinates (Angstroms)
 Number     Number       Type             X           Y           Z
 ---------------------------------------------------------------------
      1          1           0        0.000000    0.000000    0.000000
      2          1           0       -0.600000    0.000000    0.000000
      3          9           0        2.250000    0.000000    0.000000
 ---------------------------------------------------------------------

 SCF Done:  E(UB3LYP) =  -100.914247980     a.u. after   61 cycles

 Alpha  occ. eigenvalues --  -24.76991  -1.22799  -0.55955  -0.48524  -0.47102
 Alpha  occ. eigenvalues --   -0.44738
 Alpha virt. eigenvalues --    0.10363   0.20254   0.52365   0.85369   0.90197
 Alpha virt. eigenvalues --    0.94027   1.10872   1.10934   1.14943   1.62726
 Alpha virt. eigenvalues --    1.82824   1.93416   1.93460   2.41605   3.64325

  Beta  occ. eigenvalues --  -24.73827  -1.13707  -0.47133  -0.43929  -0.42952
  Beta virt. eigenvalues --   -0.26567   0.10497   0.20360   0.52452   0.91679
  Beta virt. eigenvalues --    0.94729   0.95834   1.10943   1.10949   1.18482
  Beta virt. eigenvalues --    1.62794   1.82840   1.93424   1.93458   2.41642

 Mulliken charges and spin densities:
               1          2
     1  H   -0.009446  -0.002391
     2  H   -0.008975  -0.000475
     3  F    0.018421   1.002865
 Sum of Mulliken charges =   0.00000   1.00000

 Dipole moment (field-independent basis, Debye):
    X=              0.1855    Y=              0.0000    Z=             -0.0000  Tot=              0.1855
 Quadrupole moment (field-independent basis, Debye-Ang):
   XX=             -6.0086   YY=             -5.9030   ZZ=             -6.7313
   XY=              0.0000   XZ=             -0.0000   YZ=             -0.1214

  Exact polarizability:       7.070      -0.000       2.347       0.000      -0.058       1.953
 Approx polarizability:       7.544      -0.000       2.557       0.000      -0.075       2.042

 ******    2 imaginary frequencies (negative Signs) ******

                      1                      2                      3
                      A                      A                      A
 Frequencies --  -2740.3011             -2714.3602               348.7716
 Red. masses --      1.0092                 1.0092                 1.1085
 Frc consts  --      4.4651                 4.3809                 0.0794
 IR Inten    --      0.1053                 0.0444                 0.9393

                      4
                      A
 Frequencies --   7044.4324
 Red. masses --      1.0078
 Frc consts  --     29.4664
 IR Inten    --      7.8419

 - Thermochemistry -
 -------------------
 Temperature   298.150 Kelvin.  Pressure   1.00000 Atm.
 Atom     1 has atomic number  1 and mass   1.00783

 Molecular mass:    21.01405 amu.
 Principal axes and moments of inertia in atomic units:
                           1         2         3
     Eigenvalues --     0.00000  42.96342  42.96342
           X            1.00000  -0.00000   0.00000
           Y            0.00000   1.00000   0.00000
           Z            0.00000   0.00000   1.00000
 This molecule is a prolate symmetric top.
 Rotational symmetry number  1.
 Rotational temperature (Kelvin)      2.01599
 Rotational constant (GHZ):          42.006459
    2 imaginary frequencies ignored.
 Zero-point vibrational energy      44221.2 (Joules/Mol)
                                   10.56912 (Kcal/Mol)
 Warning -- explicit consideration of   1 degrees of freedom as
           vibrations may cause significant error
 Vibrational temperatures:    501.80 10135.37
          (Kelvin)

 Zero-point correction=                           0.016843 (Hartree/Particle)
 Thermal correction to Energy=                    0.019566
 Thermal correction to Enthalpy=                  0.020510
 Thermal correction to Gibbs Free Energy=        -0.003025
 Sum of electronic and zero-point Energies=           -100.897405
 Sum of electronic and thermal Energies=              -100.894682
 Sum of electronic and thermal Enthalpies=            -100.893738
 Sum of electronic and thermal Free Energies=         -100.917273

                     E (Thermal)             CV                S
                      KCal/Mol        Cal/Mol-Kelvin    Cal/Mol-Kelvin
 Total                   12.278              6.546             49.533
 Electronic               0.000              0.000              1.377
 Translational            0.889              2.981             35.068
 Rotational               0.592              1.987             11.916
 Vibrational             10.797              1.578              1.172
 Vibration     1          0.726              1.578              1.172

 Normal termination of Gaussian 16 at Fri Aug 22 17:14:43 2025.
