 Gaussian 16, Revision C.01,
 Gaussian 16:  ES64L-G16RevC.01  3-Jul-2019

 -----------------------------------------
 # sp b3lyp/6-311g** Force nosymm scf=(qc)
 -----------------------------------------

 -------------------
 Title Card Required
 -------------------
 Symbolic Z-matrix:
 Charge =  0 Multiplicity = 2

                          Input orientation:
 ---------------------------------------------------------------------
 Center     Atomic      Atomic             Coordinates (Angstroms)
 Number     Number       Type             X           Y           Z
 ---------------------------------------------------------------------
      1          1           0        0.000000    0.000000    0.000000
      2          1           0       -0.700000    0.000000    0.000000
      3          9           0        0.900000    0.000000    0.000000
 ---------------------------------------------------------------------

 SCF Done:  E(UB3LYP) =  -100.898992277     a.u. after    6 cycles

 Alpha  occ. eigenvalues --  -24.66791  -1.23616  -0.65524  -0.42402  -0.42402
 Alpha  occ. eigenvalues --   -0.33546
 Alpha virt. eigenvalues --    0.15065   0.18013   0.65033   0.86891   0.86891
 Alpha virt. eigenvalues --    0.94232   1.10232   1.10232   1.44835   1.74895
 Alpha virt. eigenvalues --    1.79688   1.79688   2.00029   2.51011   3.78528

  Beta  occ. eigenvalues --  -24.65457  -1.20171  -0.58821  -0.41217  -0.41217
  Beta virt. eigenvalues --   -0.15690   0.17123   0.19845   0.70285   0.88954
  Beta virt. eigenvalues --    0.88954   0.96900   1.14749   1.14749   1.46888
  Beta virt. eigenvalues --    1.83146   1.84381   1.84381   2.02100   2.58096

 Mulliken charges and spin densities:
               1          2
     1  H    0.276685  -0.019688
     2  H   -0.055217   0.712530
     3  F   -0.221469   0.307159
 Sum of Mulliken charges =   0.00000   1.00000

 Dipole moment (field-independent basis, Debye):
    X=             -1.3192    Y=              0.0000    Z=             -0.0000  Tot=              1.3192
 Quadrupole moment (field-independent basis, Debye-Ang):
   XX=             -7.4754   YY=             -6.4821   ZZ=             -6.4821
   XY=              0.0000   XZ=             -0.0000   YZ=             -0.0000

  Exact polarizability:      11.533      -0.000       2.535      -0.000       0.000       2.535
 Approx polarizability:      13.018      -0.000       2.604       0.000       0.000       2.604

 ******    2 imaginary frequencies (negative Signs) ******

                      1                      2                      3
                      A                      A                      A
 Frequencies --  -2710.4854             -2710.4854              2970.7630
 Red. masses --      1.0152                 1.0152                 1.1023
 Frc consts  --      4.3943                 4.3943                 5.7315
 IR Inten    --     51.2382                51.2382               114.9740

                      4
                      A
 Frequencies --   5255.6097
 Red. masses --      1.0130
 Frc consts  --     16.4864
 IR Inten    --     13.7841

 - Thermochemistry -
 -------------------
 Temperature   298.150 Kelvin.  Pressure   1.00000 Atm.
 Atom     1 has atomic number  1 and mass   1.00783

 Molecular mass:    21.01405 amu.
 Principal axes and moments of inertia in atomic units:
                           1         2         3
     Eigenvalues --     0.00000  11.04987  11.04987
           X            1.00000  -0.00000   0.00000
           Y            0.00000   1.00000   0.00000
           Z            0.00000   0.00000   1.00000
 This molecule is a prolate symmetric top.
 Rotational symmetry number  1.
 Rotational temperature (Kelvin)      7.83846
 Rotational constant (GHZ):         163.326983
    2 imaginary frequencies ignored.
 Zero-point vibrational energy      49204.6 (Joules/Mol)
                                   11.76019 (Kcal/Mol)
 Vibrational temperatures:   4274.27  7561.65
          (Kelvin)

 Zero-point correction=                           0.018741 (Hartree/Particle)
 Thermal correction to Energy=                    0.021102
 Thermal correction to Enthalpy=                  0.022046
 Thermal correction to Gibbs Free Energy=         0.000350
 Sum of electronic and zero-point Energies=           -100.880251
 Sum of electronic and thermal Energies=              -100.877891
 Sum of electronic and thermal Enthalpies=            -100.876947
 Sum of electronic and thermal Free Energies=         -100.898643

                     E (Thermal)             CV                S
                      KCal/Mol        Cal/Mol-Kelvin    Cal/Mol-Kelvin
 Total                   13.241              4.968             45.663
 Electronic               0.000              0.000              1.377
 Translational            0.889              2.981             35.068
 Rotational               0.592              1.987              9.218
 Vibrational             11.760              0.000              0.000

 Normal termination of Gaussian 16 at Fri Aug 22 15:54:54 2025.
