 Gaussian 16, Revision C.01,
 Gaussian 16:  ES64L-G16RevC.01  3-Jul-2019

 -----------------------------------------
 # sp b3lyp/6-311g** Force nosymm scf=(qc)
 -----------------------------------------

 -------------------
 Title Card Required
 -------------------
 Symbolic Z-matrix:
 Charge =  0 Multiplicity = 2

                          Input orientation:
 ---------------------------------------------------------------------
 Center     Atomic      Atomic             Coordinates (Angstroms)
 Number     Number       Type             X           Y           Z
 ---------------------------------------------------------------------
      1          1           0        0.000000    0.000000    0.000000
      2          1           0       -0.750000    0.000000    0.000000
      3          9           0        3.800000    0.000000    0.000000
 ---------------------------------------------------------------------

 SCF Done:  E(UB3LYP) =  -100.933721047     a.u. after  177 cycles

 Alpha  occ. eigenvalues --  -24.76225  -1.22110  -0.55313  -0.46493  -0.46468
 Alpha  occ. eigenvalues --   -0.43182
 Alpha virt. eigenvalues --    0.05735   0.19792   0.46566   0.86068   0.90945
 Alpha virt. eigenvalues --    0.91991   1.01238   1.08508   1.08511   1.55020
 Alpha virt. eigenvalues --    1.82361   1.82363   1.96320   2.37910   3.28186

  Beta  occ. eigenvalues --  -24.73069  -1.13035  -0.43390  -0.43304  -0.43121
  Beta virt. eigenvalues --   -0.25959   0.05742   0.19797   0.46598   0.92445
  Beta virt. eigenvalues --    0.93483   0.95534   1.05359   1.08508   1.08511
  Beta virt. eigenvalues --    1.55023   1.82360   1.82363   1.96330   2.37910

 Mulliken charges and spin densities:
               1          2
     1  H   -0.000167  -0.000220
     2  H   -0.001826   0.000002
     3  F    0.001993   1.000218
 Sum of Mulliken charges =   0.00000   1.00000

 Dipole moment (field-independent basis, Debye):
    X=              0.0282    Y=              0.0000    Z=             -0.0000  Tot=              0.0282
 Quadrupole moment (field-independent basis, Debye-Ang):
   XX=             -6.2708   YY=             -6.8278   ZZ=             -6.2101
   XY=              0.0000   XZ=             -0.0000   YZ=             -0.3024

  Exact polarizability:       8.109       0.000       2.024      -0.000      -0.163       2.356
 Approx polarizability:       9.392       0.000       2.116      -0.000      -0.204       2.532

 ******    1 imaginary frequencies (negative Signs) ******

                      1                      2                      3
                      A                      A                      A
 Frequencies --    -57.9378               397.5940               405.3265
 Red. masses --      1.1085                 1.0086                 1.0086
 Frc consts  --      0.0022                 0.0939                 0.0976
 IR Inten    --      0.0730                 0.0000                 0.0000

                      4
                      A
 Frequencies --   4337.3052
 Red. masses --      1.0078
 Frc consts  --     11.1706
 IR Inten    --      0.0364

 - Thermochemistry -
 -------------------
 Temperature   298.150 Kelvin.  Pressure   1.00000 Atm.
 Atom     1 has atomic number  1 and mass   1.00783

 Molecular mass:    21.01405 amu.
 Principal axes and moments of inertia in atomic units:
                           1         2         3
     Eigenvalues --     0.00000 114.44357 114.44357
           X            1.00000  -0.00000   0.00000
           Y            0.00000   1.00000   0.00000
           Z            0.00000   0.00000   1.00000
 This molecule is a prolate symmetric top.
 Rotational symmetry number  1.
 Rotational temperature (Kelvin)      0.75683
 Rotational constant (GHZ):          15.769704
    1 imaginary frequencies ignored.
 Zero-point vibrational energy      30745.4 (Joules/Mol)
                                    7.34832 (Kcal/Mol)
 Warning -- explicit consideration of   2 degrees of freedom as
           vibrations may cause significant error
 Vibrational temperatures:    572.05   583.17  6240.41
          (Kelvin)

 Zero-point correction=                           0.011710 (Hartree/Particle)
 Thermal correction to Energy=                    0.014687
 Thermal correction to Enthalpy=                  0.015631
 Thermal correction to Gibbs Free Energy=        -0.009182
 Sum of electronic and zero-point Energies=           -100.922011
 Sum of electronic and thermal Energies=              -100.919034
 Sum of electronic and thermal Enthalpies=            -100.918090
 Sum of electronic and thermal Free Energies=         -100.942903

                     E (Thermal)             CV                S
                      KCal/Mol        Cal/Mol-Kelvin    Cal/Mol-Kelvin
 Total                    9.216              7.902             52.223
 Electronic               0.000              0.000              1.377
 Translational            0.889              2.981             35.068
 Rotational               0.592              1.987             13.863
 Vibrational              7.735              2.934              1.915
 Vibration     1          0.764              1.475              0.972
 Vibration     2          0.770              1.459              0.943

 Normal termination of Gaussian 16 at Sat Aug 23 00:30:43 2025.
