 Gaussian 16, Revision C.01,
 Gaussian 16:  ES64L-G16RevC.01  3-Jul-2019

 -----------------------------------------
 # sp b3lyp/6-311g** Force nosymm scf=(qc)
 -----------------------------------------

 -------------------
 Title Card Required
 -------------------
 Symbolic Z-matrix:
 Charge =  0 Multiplicity = 2

                          Input orientation:
 ---------------------------------------------------------------------
 Center     Atomic      Atomic             Coordinates (Angstroms)
 Number     Number       Type             X           Y           Z
 ---------------------------------------------------------------------
      1          1           0        0.000000    0.000000    0.000000
      2          1           0       -0.950000    0.000000    0.000000
      3          9           0        3.100000    0.000000    0.000000
 ---------------------------------------------------------------------

 SCF Done:  E(UB3LYP) =  -100.914578032     a.u. after    6 cycles

 Alpha  occ. eigenvalues --  -24.76185  -1.22081  -0.55310  -0.46447  -0.46447
 Alpha  occ. eigenvalues --   -0.39978
 Alpha virt. eigenvalues --    0.01220   0.20853   0.39759   0.89338   0.90944
 Alpha virt. eigenvalues --    0.90944   1.03906   1.08345   1.08345   1.41287
 Alpha virt. eigenvalues --    1.68656   1.68656   2.22152   2.37087   2.64332

  Beta  occ. eigenvalues --  -24.73041  -1.13040  -0.43295  -0.43295  -0.39959
  Beta virt. eigenvalues --   -0.26141   0.01357   0.20959   0.40103   0.92437
  Beta virt. eigenvalues --    0.92437   0.98171   1.08148   1.08377   1.08377
  Beta virt. eigenvalues --    1.41336   1.68681   1.68681   2.22240   2.37137

 Mulliken charges and spin densities:
               1          2
     1  H   -0.008794  -0.002899
     2  H    0.008309   0.006691
     3  F    0.000486   0.996208
 Sum of Mulliken charges =   0.00000   1.00000

 Dipole moment (field-independent basis, Debye):
    X=             -0.0387    Y=             -0.0000    Z=             -0.0000  Tot=              0.0387
 Quadrupole moment (field-independent basis, Debye-Ang):
   XX=             -5.5075   YY=             -7.2109   ZZ=             -7.2109
   XY=             -0.0000   XZ=             -0.0000   YZ=              0.0000

  Exact polarizability:      13.604      -0.000       2.046       0.000      -0.000       2.046
 Approx polarizability:      16.489      -0.000       2.104       0.000      -0.000       2.104

 ******    1 imaginary frequencies (negative Signs) ******

                      1                      2                      3
                      A                      A                      A
 Frequencies --    -58.9543              1509.4708              1509.4708
 Red. masses --      1.1085                 1.0096                 1.0096
 Frc consts  --      0.0023                 1.3553                 1.3553
 IR Inten    --      0.2984                 0.0761                 0.0761

                      4
                      A
 Frequencies --   2192.9600
 Red. masses --      1.0078
 Frc consts  --      2.8556
 IR Inten    --      4.0378

 - Thermochemistry -
 -------------------
 Temperature   298.150 Kelvin.  Pressure   1.00000 Atm.
 Atom     1 has atomic number  1 and mass   1.00783

 Molecular mass:    21.01405 amu.
 Principal axes and moments of inertia in atomic units:
                           1         2         3
     Eigenvalues --     0.00000  84.79511  84.79511
           X            1.00000  -0.00000   0.00000
           Y            0.00000   1.00000   0.00000
           Z            0.00000   0.00000   1.00000
 This molecule is a prolate symmetric top.
 Rotational symmetry number  1.
 Rotational temperature (Kelvin)      1.02145
 Rotational constant (GHZ):          21.283552
    1 imaginary frequencies ignored.
 Zero-point vibrational energy      31174.1 (Joules/Mol)
                                    7.45079 (Kcal/Mol)
 Vibrational temperatures:   2171.79  2171.79  3155.18
          (Kelvin)

 Zero-point correction=                           0.011874 (Hartree/Particle)
 Thermal correction to Energy=                    0.014244
 Thermal correction to Enthalpy=                  0.015188
 Thermal correction to Gibbs Free Energy=        -0.008443
 Sum of electronic and zero-point Energies=           -100.902704
 Sum of electronic and thermal Energies=              -100.900334
 Sum of electronic and thermal Enthalpies=            -100.899390
 Sum of electronic and thermal Free Energies=         -100.923021

                     E (Thermal)             CV                S
                      KCal/Mol        Cal/Mol-Kelvin    Cal/Mol-Kelvin
 Total                    8.938              5.119             49.736
 Electronic               0.000              0.000              1.377
 Translational            0.889              2.981             35.068
 Rotational               0.592              1.987             13.267
 Vibrational              7.457              0.151              0.023

 Normal termination of Gaussian 16 at Fri Aug 22 19:47:55 2025.
