 Gaussian 16, Revision C.01,
 Gaussian 16:  ES64L-G16RevC.01  3-Jul-2019

 -----------------------------------------
 # sp b3lyp/6-311g** Force nosymm scf=(qc)
 -----------------------------------------

 -------------------
 Title Card Required
 -------------------
 Symbolic Z-matrix:
 Charge =  0 Multiplicity = 2

                          Input orientation:
 ---------------------------------------------------------------------
 Center     Atomic      Atomic             Coordinates (Angstroms)
 Number     Number       Type             X           Y           Z
 ---------------------------------------------------------------------
      1          1           0        0.000000    0.000000    0.000000
      2          1           0       -3.150000    0.000000    0.000000
      3          9           0        2.200000    0.000000    0.000000
 ---------------------------------------------------------------------

 SCF Done:  E(UB3LYP) =  -100.775920528     a.u. after   18 cycles

 Alpha  occ. eigenvalues --  -24.66962  -1.08528  -0.38308  -0.38308  -0.36889
 Alpha  occ. eigenvalues --   -0.33223
 Alpha virt. eigenvalues --   -0.21848   0.21085   0.27909   0.91750   0.95696
 Alpha virt. eigenvalues --    0.95696   1.08413   1.21516   1.21516   1.24101
 Alpha virt. eigenvalues --    1.24101   1.24430   1.42184   2.12300   2.14740

  Beta  occ. eigenvalues --  -24.69574  -1.15895  -0.48628  -0.40897  -0.40897
  Beta virt. eigenvalues --   -0.12794  -0.04721   0.31713   0.39799   0.88776
  Beta virt. eigenvalues --    0.94620   0.94620   1.06384   1.37566   1.37566
  Beta virt. eigenvalues --    1.47571   1.47571   1.47748   1.52190   2.33008

 Mulliken charges and spin densities:
               1          2
     1  H    0.144722   0.825404
     2  H    0.002928   0.997137
     3  F   -0.147651  -0.822541
 Sum of Mulliken charges =   0.00000   1.00000

 Dipole moment (field-independent basis, Debye):
    X=             -1.6717    Y=              0.0000    Z=              0.0000  Tot=              1.6717
 Quadrupole moment (field-independent basis, Debye-Ang):
   XX=             -9.8504   YY=             -7.5142   ZZ=             -7.5142
   XY=             -0.0000   XZ=             -0.0000   YZ=             -0.0000

  Exact polarizability:      31.543      -0.000       2.040      -0.000      -0.000       2.040
 Approx polarizability:      43.056      -0.000       1.930      -0.000       0.000       1.930

 ******    1 imaginary frequencies (negative Signs) ******

                      1                      2                      3
                      A                      A                      A
 Frequencies --   -845.7425               115.8663               352.0658
 Red. masses --      1.0611                 1.0505                 1.0228
 Frc consts  --      0.4472                 0.0083                 0.0747
 IR Inten    --     86.7159                 1.0415                19.3078

                      4
                      A
 Frequencies --    352.0658
 Red. masses --      1.0228
 Frc consts  --      0.0747
 IR Inten    --     19.3078

 - Thermochemistry -
 -------------------
 Temperature   298.150 Kelvin.  Pressure   1.00000 Atm.
 Atom     1 has atomic number  1 and mass   1.00783

 Molecular mass:    21.01405 amu.
 Principal axes and moments of inertia in atomic units:
                           1         2         3
     Eigenvalues --     0.00000 110.59280 110.59280
           X            1.00000  -0.00000   0.00000
           Y            0.00000   1.00000   0.00000
           Z            0.00000   0.00000   1.00000
 This molecule is a prolate symmetric top.
 Rotational symmetry number  1.
 Rotational temperature (Kelvin)      0.78318
 Rotational constant (GHZ):          16.318795
    1 imaginary frequencies ignored.
 Zero-point vibrational energy       4904.7 (Joules/Mol)
                                    1.17225 (Kcal/Mol)
 Warning -- explicit consideration of   3 degrees of freedom as
           vibrations may cause significant error
 Vibrational temperatures:    166.71   506.54   506.54
          (Kelvin)

 Zero-point correction=                           0.001868 (Hartree/Particle)
 Thermal correction to Energy=                    0.005651
 Thermal correction to Enthalpy=                  0.006595
 Thermal correction to Gibbs Free Energy=        -0.019880
 Sum of electronic and zero-point Energies=           -100.774052
 Sum of electronic and thermal Energies=              -100.770269
 Sum of electronic and thermal Enthalpies=            -100.769325
 Sum of electronic and thermal Free Energies=         -100.795801

                     E (Thermal)             CV                S
                      KCal/Mol        Cal/Mol-Kelvin    Cal/Mol-Kelvin
 Total                    3.546             10.046             55.723
 Electronic               0.000              0.000              1.377
 Translational            0.889              2.981             35.068
 Rotational               0.592              1.987             13.795
 Vibrational              2.065              5.078              5.482
 Vibration     1          0.608              1.936              3.168
 Vibration     2          0.729              1.571              1.157
 Vibration     3          0.729              1.571              1.157

 Normal termination of Gaussian 16 at Fri Aug 22 17:12:45 2025.
