 Gaussian 16, Revision C.01,
 Gaussian 16:  ES64L-G16RevC.01  3-Jul-2019

 -----------------------------------------
 # sp b3lyp/6-311g** Force nosymm scf=(qc)
 -----------------------------------------

 -------------------
 Title Card Required
 -------------------
 Symbolic Z-matrix:
 Charge =  0 Multiplicity = 2

                          Input orientation:
 ---------------------------------------------------------------------
 Center     Atomic      Atomic             Coordinates (Angstroms)
 Number     Number       Type             X           Y           Z
 ---------------------------------------------------------------------
      1          1           0        0.000000    0.000000    0.000000
      2          1           0       -0.900000    0.000000    0.000000
      3          9           0        2.450000    0.000000    0.000000
 ---------------------------------------------------------------------

 SCF Done:  E(UB3LYP) =  -100.922260066     a.u. after    7 cycles

 Alpha  occ. eigenvalues --  -24.75765  -1.21700  -0.55006  -0.46098  -0.46098
 Alpha  occ. eigenvalues --   -0.41302
 Alpha virt. eigenvalues --    0.02716   0.20796   0.42261   0.89628   0.91090
 Alpha virt. eigenvalues --    0.91090   1.07465   1.07465   1.11271   1.45249
 Alpha virt. eigenvalues --    1.71351   1.71351   2.17968   2.37802   2.73244

  Beta  occ. eigenvalues --  -24.72662  -1.12794  -0.42991  -0.42991  -0.41227
  Beta virt. eigenvalues --   -0.26100   0.03225   0.21107   0.42610   0.92555
  Beta virt. eigenvalues --    0.92555   0.98006   1.07684   1.07684   1.15493
  Beta virt. eigenvalues --    1.45653   1.71500   1.71500   2.18224   2.38021

 Mulliken charges and spin densities:
               1          2
     1  H   -0.010886  -0.014287
     2  H    0.020558   0.033545
     3  F   -0.009671   0.980742
 Sum of Mulliken charges =   0.00000   1.00000

 Dipole moment (field-independent basis, Debye):
    X=             -0.2112    Y=              0.0000    Z=             -0.0000  Tot=              0.2112
 Quadrupole moment (field-independent basis, Debye-Ang):
   XX=             -5.7437   YY=             -7.1381   ZZ=             -7.1381
   XY=              0.0000   XZ=             -0.0000   YZ=             -0.0000

  Exact polarizability:      18.506      -0.000       2.053       0.000      -0.000       2.053
 Approx polarizability:      20.692       0.000       2.118       0.000      -0.000       2.118

 ******    1 imaginary frequencies (negative Signs) ******

                      1                      2                      3
                      A                      A                      A
 Frequencies --   -171.3309              1429.6961              1429.6961
 Red. masses --      1.1085                 1.0102                 1.0102
 Frc consts  --      0.0192                 1.2166                 1.2166
 IR Inten    --      8.5680                 0.3159                 0.3159

                      4
                      A
 Frequencies --   2597.8453
 Red. masses --      1.0078
 Frc consts  --      4.0075
 IR Inten    --     83.4223

 - Thermochemistry -
 -------------------
 Temperature   298.150 Kelvin.  Pressure   1.00000 Atm.
 Atom     1 has atomic number  1 and mass   1.00783

 Molecular mass:    21.01405 amu.
 Principal axes and moments of inertia in atomic units:
                           1         2         3
     Eigenvalues --     0.00000  56.18643  56.18643
           X            1.00000  -0.00000   0.00000
           Y            0.00000   1.00000   0.00000
           Z            0.00000   0.00000   1.00000
 This molecule is a prolate symmetric top.
 Rotational symmetry number  1.
 Rotational temperature (Kelvin)      1.54155
 Rotational constant (GHZ):          32.120591
    1 imaginary frequencies ignored.
 Zero-point vibrational energy      32641.5 (Joules/Mol)
                                    7.80151 (Kcal/Mol)
 Vibrational temperatures:   2057.01  2057.01  3737.72
          (Kelvin)

 Zero-point correction=                           0.012433 (Hartree/Particle)
 Thermal correction to Energy=                    0.014806
 Thermal correction to Enthalpy=                  0.015750
 Thermal correction to Gibbs Free Energy=        -0.007496
 Sum of electronic and zero-point Energies=           -100.909828
 Sum of electronic and thermal Energies=              -100.907454
 Sum of electronic and thermal Enthalpies=            -100.906510
 Sum of electronic and thermal Free Energies=         -100.929756

                     E (Thermal)             CV                S
                      KCal/Mol        Cal/Mol-Kelvin    Cal/Mol-Kelvin
 Total                    9.291              5.160             48.927
 Electronic               0.000              0.000              1.377
 Translational            0.889              2.981             35.068
 Rotational               0.592              1.987             12.449
 Vibrational              7.810              0.192              0.032

 Normal termination of Gaussian 16 at Fri Aug 22 17:36:14 2025.
