 Gaussian 16, Revision C.01,
 Gaussian 16:  ES64L-G16RevC.01  3-Jul-2019

 -----------------------------------------
 # sp b3lyp/6-311g** Force nosymm scf=(qc)
 -----------------------------------------

 -------------------
 Title Card Required
 -------------------
 Symbolic Z-matrix:
 Charge =  0 Multiplicity = 2

                          Input orientation:
 ---------------------------------------------------------------------
 Center     Atomic      Atomic             Coordinates (Angstroms)
 Number     Number       Type             X           Y           Z
 ---------------------------------------------------------------------
      1          1           0        0.000000    0.000000    0.000000
      2          1           0       -1.750000    0.000000    0.000000
      3          9           0        3.950000    0.000000    0.000000
 ---------------------------------------------------------------------

 SCF Done:  E(UB3LYP) =  -100.790087901     a.u. after   49 cycles

 Alpha  occ. eigenvalues --  -24.76171  -1.22076  -0.55281  -0.46451  -0.46438
 Alpha  occ. eigenvalues --   -0.32993
 Alpha virt. eigenvalues --   -0.10641   0.25856   0.31284   0.86080   0.90957
 Alpha virt. eigenvalues --    0.91287   1.00890   1.08725   1.24345   1.24346
 Alpha virt. eigenvalues --    1.37967   1.37969   1.64450   2.15879   2.40312

  Beta  occ. eigenvalues --  -24.73016  -1.13005  -0.43291  -0.43275  -0.32982
  Beta virt. eigenvalues --   -0.25933  -0.10674   0.25850   0.31295   0.92458
  Beta virt. eigenvalues --    0.92760   0.95547   1.05033   1.08719   1.24344
  Beta virt. eigenvalues --    1.24347   1.37954   1.37955   1.64457   2.15984

 Mulliken charges and spin densities:
               1          2
     1  H    0.000788  -0.671393
     2  H   -0.001467   0.671394
     3  F    0.000679   0.999999
 Sum of Mulliken charges =   0.00000   1.00000

 Dipole moment (field-independent basis, Debye):
    X=              0.0202    Y=             -0.0000    Z=              0.0000  Tot=              0.0202
 Quadrupole moment (field-independent basis, Debye-Ang):
   XX=             -6.6874   YY=             -7.0693   ZZ=             -7.5942
   XY=             -0.0000   XZ=              0.0000   YZ=             -0.3436

  Exact polarizability:      23.667      -0.000       2.389       0.000      -0.185       2.107
 Approx polarizability:      35.667      -0.000       2.438       0.000      -0.232       2.084

 ******    2 imaginary frequencies (negative Signs) ******

                      1                      2                      3
                      A                      A                      A
 Frequencies --  -1819.0008               -51.0327               840.0331
 Red. masses --      1.0078                 1.1085                 1.0110
 Frc consts  --      1.9647                 0.0017                 0.4204
 IR Inten    --      0.0045                 0.0296                 0.0012

                      4
                      A
 Frequencies --    840.4518
 Red. masses --      1.0110
 Frc consts  --      0.4208
 IR Inten    --      0.0007

 - Thermochemistry -
 -------------------
 Temperature   298.150 Kelvin.  Pressure   1.00000 Atm.
 Atom     1 has atomic number  1 and mass   1.00783

 Molecular mass:    21.01405 amu.
 Principal axes and moments of inertia in atomic units:
                           1         2         3
     Eigenvalues --     0.00000 157.01173 157.01173
           X            1.00000  -0.00000   0.00000
           Y            0.00000   1.00000   0.00000
           Z            0.00000   0.00000   1.00000
 This molecule is a prolate symmetric top.
 Rotational symmetry number  1.
 Rotational temperature (Kelvin)      0.55164
 Rotational constant (GHZ):          11.494308
    2 imaginary frequencies ignored.
 Zero-point vibrational energy      10051.5 (Joules/Mol)
                                    2.40237 (Kcal/Mol)
 Vibrational temperatures:   1208.62  1209.22
          (Kelvin)

 Zero-point correction=                           0.003828 (Hartree/Particle)
 Thermal correction to Energy=                    0.006324
 Thermal correction to Enthalpy=                  0.007268
 Thermal correction to Gibbs Free Energy=        -0.017102
 Sum of electronic and zero-point Energies=           -100.786259
 Sum of electronic and thermal Energies=              -100.783764
 Sum of electronic and thermal Enthalpies=            -100.782820
 Sum of electronic and thermal Free Energies=         -100.807190

                     E (Thermal)             CV                S
                      KCal/Mol        Cal/Mol-Kelvin    Cal/Mol-Kelvin
 Total                    3.968              6.141             51.291
 Electronic               0.000              0.000              1.377
 Translational            0.889              2.981             35.068
 Rotational               0.592              1.987             14.492
 Vibrational              2.487              1.173              0.354

 Normal termination of Gaussian 16 at Sat Aug 23 01:35:31 2025.
