 Gaussian 16, Revision C.01,
 Gaussian 16:  ES64L-G16RevC.01  3-Jul-2019

 -----------------------------------------
 # sp b3lyp/6-311g** Force nosymm scf=(qc)
 -----------------------------------------

 -------------------
 Title Card Required
 -------------------
 Symbolic Z-matrix:
 Charge =  0 Multiplicity = 2

                          Input orientation:
 ---------------------------------------------------------------------
 Center     Atomic      Atomic             Coordinates (Angstroms)
 Number     Number       Type             X           Y           Z
 ---------------------------------------------------------------------
      1          1           0        0.000000    0.000000    0.000000
      2          1           0       -3.950000    0.000000    0.000000
      3          9           0        0.600000    0.000000    0.000000
 ---------------------------------------------------------------------

 SCF Done:  E(UB3LYP) =  -100.687884062     a.u. after    6 cycles

 Alpha  occ. eigenvalues --  -24.62732  -1.34733  -0.61027  -0.42984  -0.42984
 Alpha  occ. eigenvalues --   -0.33091
 Alpha virt. eigenvalues --    0.07410   0.24468   0.58105   0.92117   0.92117
 Alpha virt. eigenvalues --    0.93146   1.24335   1.24412   1.24412   1.32977
 Alpha virt. eigenvalues --    1.50258   1.50258   1.95335   2.14299   3.36507

  Beta  occ. eigenvalues --  -24.62732  -1.34733  -0.61027  -0.42984  -0.42984
  Beta virt. eigenvalues --   -0.04893   0.07532   0.38747   0.58082   0.92117
  Beta virt. eigenvalues --    0.92117   0.93143   1.32802   1.48814   1.49290
  Beta virt. eigenvalues --    1.49290   1.50258   1.50258   1.95339   2.46087

 Mulliken charges and spin densities:
               1          2
     1  H    0.238536   0.000256
     2  H    0.000304   0.999664
     3  F   -0.238840   0.000080
 Sum of Mulliken charges =   0.00000   1.00000

 Dipole moment (field-independent basis, Debye):
    X=             -1.4327    Y=             -0.0000    Z=              0.0000  Tot=              1.4327
 Quadrupole moment (field-independent basis, Debye-Ang):
   XX=             -7.0045   YY=             -6.5520   ZZ=             -6.5520
   XY=             -0.0000   XZ=              0.0000   YZ=             -0.0000

  Exact polarizability:       3.181      -0.000       2.434      -0.000       0.000       2.434
 Approx polarizability:       3.440       0.000       2.412       0.000       0.000       2.412

 ******    3 imaginary frequencies (negative Signs) ******

                      1                      2                      3
                      A                      A                      A
 Frequencies --  -5896.5134             -5896.5134               -26.9440
 Red. masses --      1.0452                 1.0452                 1.0532
 Frc consts  --     21.4122                21.4122                 0.0005
 IR Inten    --    242.8970               242.8970                 0.0071

                      4
                      A
 Frequencies --  13070.5882
 Red. masses --      1.0583
 Frc consts  --    106.5255
 IR Inten    --     95.9113

 - Thermochemistry -
 -------------------
 Temperature   298.150 Kelvin.  Pressure   1.00000 Atm.
 Atom     1 has atomic number  1 and mass   1.00783

 Molecular mass:    21.01405 amu.
 Principal axes and moments of inertia in atomic units:
                           1         2         3
     Eigenvalues --     0.00000  71.22615  71.22615
           X            1.00000  -0.00000   0.00000
           Y            0.00000   1.00000   0.00000
           Z            0.00000   0.00000   1.00000
 This molecule is a prolate symmetric top.
 Rotational symmetry number  1.
 Rotational temperature (Kelvin)      1.21604
 Rotational constant (GHZ):          25.338183
    3 imaginary frequencies ignored.
 Zero-point vibrational energy      78179.5 (Joules/Mol)
                                   18.68534 (Kcal/Mol)
 Vibrational temperatures:  18805.66
          (Kelvin)

 Zero-point correction=                           0.029777 (Hartree/Particle)
 Thermal correction to Energy=                    0.032137
 Thermal correction to Enthalpy=                  0.033082
 Thermal correction to Gibbs Free Energy=         0.009626
 Sum of electronic and zero-point Energies=           -100.658107
 Sum of electronic and thermal Energies=              -100.655747
 Sum of electronic and thermal Enthalpies=            -100.654802
 Sum of electronic and thermal Free Energies=         -100.678258

                     E (Thermal)             CV                S
                      KCal/Mol        Cal/Mol-Kelvin    Cal/Mol-Kelvin
 Total                   20.167              4.968             49.366
 Electronic               0.000              0.000              1.377
 Translational            0.889              2.981             35.068
 Rotational               0.592              1.987             12.921
 Vibrational             18.685              0.000              0.000

 Normal termination of Gaussian 16 at Fri Aug 22 15:42:57 2025.
