 Gaussian 16, Revision C.01,
 Gaussian 16:  ES64L-G16RevC.01  3-Jul-2019

 -----------------------------------------
 # sp b3lyp/6-311g** Force nosymm scf=(qc)
 -----------------------------------------

 -------------------
 Title Card Required
 -------------------
 Symbolic Z-matrix:
 Charge =  0 Multiplicity = 2

                          Input orientation:
 ---------------------------------------------------------------------
 Center     Atomic      Atomic             Coordinates (Angstroms)
 Number     Number       Type             X           Y           Z
 ---------------------------------------------------------------------
      1          1           0        0.000000    0.000000    0.000000
      2          1           0       -2.200000    0.000000    0.000000
      3          9           0        0.950000    0.000000    0.000000
 ---------------------------------------------------------------------

 SCF Done:  E(UB3LYP) =  -100.971584753     a.u. after    6 cycles

 Alpha  occ. eigenvalues --  -24.63877  -1.17264  -0.52713  -0.39019  -0.39019
 Alpha  occ. eigenvalues --   -0.35532
 Alpha virt. eigenvalues --    0.04280   0.24778   0.36483   0.94399   0.94399
 Alpha virt. eigenvalues --    0.97919   1.16301   1.21980   1.21980   1.36700
 Alpha virt. eigenvalues --    1.36700   1.45485   1.94279   2.15063   2.35396

  Beta  occ. eigenvalues --  -24.63836  -1.17160  -0.52506  -0.38984  -0.38984
  Beta virt. eigenvalues --   -0.11143   0.06275   0.35784   0.36601   0.94404
  Beta virt. eigenvalues --    0.94404   0.98225   1.25784   1.36508   1.36508
  Beta virt. eigenvalues --    1.42572   1.42572   1.55634   1.95157   2.34817

 Mulliken charges and spin densities:
               1          2
     1  H    0.298575   0.004975
     2  H    0.011072   0.983468
     3  F   -0.309647   0.011557
 Sum of Mulliken charges =   0.00000   1.00000

 Dipole moment (field-independent basis, Debye):
    X=             -2.0865    Y=             -0.0000    Z=              0.0000  Tot=              2.0865
 Quadrupole moment (field-independent basis, Debye-Ang):
   XX=             -7.7310   YY=             -6.8947   ZZ=             -6.8947
   XY=             -0.0000   XZ=              0.0000   YZ=             -0.0000

  Exact polarizability:       9.068       0.000       2.459      -0.000      -0.000       2.459
 Approx polarizability:       9.862      -0.000       2.441      -0.000      -0.000       2.441

                      1                      2                      3
                      A                      A                      A
 Frequencies --     92.5566               645.9924               645.9924
 Red. masses --      1.0528                 1.0304                 1.0304
 Frc consts  --      0.0053                 0.2534                 0.2534
 IR Inten    --      1.5752               150.5037               150.5037

                      4
                      A
 Frequencies --   3657.7243
 Red. masses --      1.0587
 Frc consts  --      8.3456
 IR Inten    --    154.8245

 - Thermochemistry -
 -------------------
 Temperature   298.150 Kelvin.  Pressure   1.00000 Atm.
 Atom     1 has atomic number  1 and mass   1.00783

 Molecular mass:    21.01405 amu.
 Principal axes and moments of inertia in atomic units:
                           1         2         3
     Eigenvalues --     0.00000  36.05775  36.05775
           X            1.00000  -0.00000   0.00000
           Y            0.00000   1.00000   0.00000
           Z            0.00000   0.00000   1.00000
 This molecule is a prolate symmetric top.
 Rotational symmetry number  1.
 Rotational temperature (Kelvin)      2.40209
 Rotational constant (GHZ):          50.051416
 Zero-point vibrational energy      30159.4 (Joules/Mol)
                                    7.20828 (Kcal/Mol)
 Warning -- explicit consideration of   1 degrees of freedom as
           vibrations may cause significant error
 Vibrational temperatures:    133.17   929.44   929.44  5262.65
          (Kelvin)

 Zero-point correction=                           0.011487 (Hartree/Particle)
 Thermal correction to Energy=                    0.014869
 Thermal correction to Enthalpy=                  0.015813
 Thermal correction to Gibbs Free Energy=        -0.009071
 Sum of electronic and zero-point Energies=           -100.960098
 Sum of electronic and thermal Energies=              -100.956715
 Sum of electronic and thermal Enthalpies=            -100.955771
 Sum of electronic and thermal Free Energies=         -100.980655

                     E (Thermal)             CV                S
                      KCal/Mol        Cal/Mol-Kelvin    Cal/Mol-Kelvin
 Total                    9.331              8.795             52.373
 Electronic               0.000              0.000              1.377
 Translational            0.889              2.981             35.068
 Rotational               0.592              1.987             11.568
 Vibrational              7.849              3.827              4.359
 Vibration     1          0.602              1.954              3.605

 Normal termination of Gaussian 16 at Fri Aug 22 15:58:17 2025.
