 Gaussian 16, Revision C.01,
 Gaussian 16:  ES64L-G16RevC.01  3-Jul-2019

 -----------------------------------------
 # sp b3lyp/6-311g** Force nosymm scf=(qc)
 -----------------------------------------

 -------------------
 Title Card Required
 -------------------
 Symbolic Z-matrix:
 Charge =  0 Multiplicity = 2

                          Input orientation:
 ---------------------------------------------------------------------
 Center     Atomic      Atomic             Coordinates (Angstroms)
 Number     Number       Type             X           Y           Z
 ---------------------------------------------------------------------
      1          1           0        0.000000    0.000000    0.000000
      2          1           0       -3.900000    0.000000    0.000000
      3          9           0        2.300000    0.000000    0.000000
 ---------------------------------------------------------------------

 SCF Done:  E(UB3LYP) =  -100.772676312     a.u. after   15 cycles

 Alpha  occ. eigenvalues --  -24.70469  -1.16751  -0.49547  -0.41649  -0.41649
 Alpha  occ. eigenvalues --   -0.32917
 Alpha virt. eigenvalues --   -0.11550   0.23126   0.34025   0.88677   0.94223
 Alpha virt. eigenvalues --    0.94223   1.06085   1.24585   1.24585   1.24597
 Alpha virt. eigenvalues --    1.38561   1.38561   1.48422   2.13930   2.34069

  Beta  occ. eigenvalues --  -24.67757  -1.09073  -0.38955  -0.38955  -0.36260
  Beta virt. eigenvalues --   -0.22468  -0.06221   0.23368   0.38096   0.92739
  Beta virt. eigenvalues --    0.95440   0.95440   1.08207   1.21598   1.21598
  Beta virt. eigenvalues --    1.37150   1.46388   1.46570   1.46570   2.11531

 Mulliken charges and spin densities:
               1          2
     1  H    0.123696  -0.854323
     2  H    0.000411   0.999209
     3  F   -0.124107   0.855115
 Sum of Mulliken charges =   0.00000   1.00000

 Dipole moment (field-independent basis, Debye):
    X=             -1.4457    Y=             -0.0000    Z=              0.0000  Tot=              1.4457
 Quadrupole moment (field-independent basis, Debye-Ang):
   XX=             -9.7001   YY=             -7.5406   ZZ=             -7.5406
   XY=             -0.0000   XZ=              0.0000   YZ=              0.0000

  Exact polarizability:      28.164      -0.000       2.034       0.000       0.000       2.034
 Approx polarizability:      38.279      -0.000       1.924       0.000      -0.000       1.924

 ******    2 imaginary frequencies (negative Signs) ******

                      1                      2                      3
                      A                      A                      A
 Frequencies --   -763.8355               -76.0197               314.8905
 Red. masses --      1.0572                 1.0543                 1.0254
 Frc consts  --      0.3634                 0.0036                 0.0599
 IR Inten    --     97.8807                 0.0433                14.8729

                      4
                      A
 Frequencies --    314.8905
 Red. masses --      1.0254
 Frc consts  --      0.0599
 IR Inten    --     14.8729

 - Thermochemistry -
 -------------------
 Temperature   298.150 Kelvin.  Pressure   1.00000 Atm.
 Atom     1 has atomic number  1 and mass   1.00783

 Molecular mass:    21.01405 amu.
 Principal axes and moments of inertia in atomic units:
                           1         2         3
     Eigenvalues --     0.00000 144.91379 144.91379
           X            1.00000  -0.00000   0.00000
           Y            0.00000   1.00000   0.00000
           Z            0.00000   0.00000   1.00000
 This molecule is a prolate symmetric top.
 Rotational symmetry number  1.
 Rotational temperature (Kelvin)      0.59769
 Rotational constant (GHZ):          12.453895
    2 imaginary frequencies ignored.
 Zero-point vibrational energy       3766.9 (Joules/Mol)
                                    0.90032 (Kcal/Mol)
 Warning -- explicit consideration of   2 degrees of freedom as
           vibrations may cause significant error
 Vibrational temperatures:    453.06   453.06
          (Kelvin)

 Zero-point correction=                           0.001435 (Hartree/Particle)
 Thermal correction to Energy=                    0.004599
 Thermal correction to Enthalpy=                  0.005543
 Thermal correction to Gibbs Free Energy=        -0.019853
 Sum of electronic and zero-point Energies=           -100.771242
 Sum of electronic and thermal Energies=              -100.768077
 Sum of electronic and thermal Enthalpies=            -100.767133
 Sum of electronic and thermal Free Energies=         -100.792529

                     E (Thermal)             CV                S
                      KCal/Mol        Cal/Mol-Kelvin    Cal/Mol-Kelvin
 Total                    2.886              8.258             53.451
 Electronic               0.000              0.000              1.377
 Translational            0.889              2.981             35.068
 Rotational               0.592              1.987             14.332
 Vibrational              1.405              3.290              2.673
 Vibration     1          0.702              1.645              1.337
 Vibration     2          0.702              1.645              1.337

 Normal termination of Gaussian 16 at Fri Aug 22 17:23:34 2025.
