 Gaussian 16, Revision C.01,
 Gaussian 16:  ES64L-G16RevC.01  3-Jul-2019

 -----------------------------------------
 # sp b3lyp/6-311g** Force nosymm scf=(qc)
 -----------------------------------------

 -------------------
 Title Card Required
 -------------------
 Symbolic Z-matrix:
 Charge =  0 Multiplicity = 2

                          Input orientation:
 ---------------------------------------------------------------------
 Center     Atomic      Atomic             Coordinates (Angstroms)
 Number     Number       Type             X           Y           Z
 ---------------------------------------------------------------------
      1          1           0        0.000000    0.000000    0.000000
      2          1           0       -2.300000    0.000000    0.000000
      3          9           0        1.850000    0.000000    0.000000
 ---------------------------------------------------------------------

 SCF Done:  E(UB3LYP) =  -100.804921276     a.u. after   18 cycles

 Alpha  occ. eigenvalues --  -24.66772  -1.13040  -0.45727  -0.38492  -0.38492
 Alpha  occ. eigenvalues --   -0.35849
 Alpha virt. eigenvalues --   -0.14153   0.23851   0.29686   0.92060   0.95044
 Alpha virt. eigenvalues --    0.95044   1.06112   1.21870   1.21870   1.26506
 Alpha virt. eigenvalues --    1.33951   1.33951   1.67279   2.12098   2.27149

  Beta  occ. eigenvalues --  -24.64706  -1.07325  -0.38566  -0.36470  -0.36470
  Beta virt. eigenvalues --   -0.19982  -0.10512   0.24981   0.33638   0.93699
  Beta virt. eigenvalues --    0.95272   0.95272   1.08666   1.23834   1.23834
  Beta virt. eigenvalues --    1.39305   1.39305   1.42316   1.62539   2.12870

 Mulliken charges and spin densities:
               1          2
     1  H    0.208597  -0.600158
     2  H    0.029447   0.950874
     3  F   -0.238044   0.649284
 Sum of Mulliken charges =   0.00000   1.00000

 Dipole moment (field-independent basis, Debye):
    X=             -2.4838    Y=              0.0000    Z=              0.0000  Tot=              2.4838
 Quadrupole moment (field-independent basis, Debye-Ang):
   XX=             -9.2487   YY=             -7.4883   ZZ=             -7.4883
   XY=             -0.0000   XZ=              0.0000   YZ=              0.0000

  Exact polarizability:      38.823      -0.000       2.090      -0.000       0.000       2.090
 Approx polarizability:      48.057      -0.000       1.987      -0.000       0.000       1.987

 ******    2 imaginary frequencies (negative Signs) ******

                      1                      2                      3
                      A                      A                      A
 Frequencies --  -1522.7800              -473.8985               639.4074
 Red. masses --      1.0413                 1.0706                 1.0208
 Frc consts  --      1.4227                 0.1417                 0.2459
 IR Inten    --     90.8091                18.9338                33.5049

                      4
                      A
 Frequencies --    639.4074
 Red. masses --      1.0208
 Frc consts  --      0.2459
 IR Inten    --     33.5049

 - Thermochemistry -
 -------------------
 Temperature   298.150 Kelvin.  Pressure   1.00000 Atm.
 Atom     1 has atomic number  1 and mass   1.00783

 Molecular mass:    21.01405 amu.
 Principal axes and moments of inertia in atomic units:
                           1         2         3
     Eigenvalues --     0.00000  68.08768  68.08768
           X            1.00000  -0.00000   0.00000
           Y            0.00000   1.00000   0.00000
           Z            0.00000   0.00000   1.00000
 This molecule is a prolate symmetric top.
 Rotational symmetry number  1.
 Rotational temperature (Kelvin)      1.27209
 Rotational constant (GHZ):          26.506134
    2 imaginary frequencies ignored.
 Zero-point vibrational energy       7649.0 (Joules/Mol)
                                    1.82816 (Kcal/Mol)
 Vibrational temperatures:    919.96   919.96
          (Kelvin)

 Zero-point correction=                           0.002913 (Hartree/Particle)
 Thermal correction to Energy=                    0.005553
 Thermal correction to Enthalpy=                  0.006497
 Thermal correction to Gibbs Free Energy=        -0.017283
 Sum of electronic and zero-point Energies=           -100.802008
 Sum of electronic and thermal Energies=              -100.799368
 Sum of electronic and thermal Enthalpies=            -100.798424
 Sum of electronic and thermal Free Energies=         -100.822205

                     E (Thermal)             CV                S
                      KCal/Mol        Cal/Mol-Kelvin    Cal/Mol-Kelvin
 Total                    3.484              6.867             50.050
 Electronic               0.000              0.000              1.377
 Translational            0.889              2.981             35.068
 Rotational               0.592              1.987             12.831
 Vibrational              2.003              1.899              0.773

 Normal termination of Gaussian 16 at Fri Aug 22 16:47:01 2025.
