 Gaussian 16, Revision C.01,
 Gaussian 16:  ES64L-G16RevC.01  3-Jul-2019

 -----------------------------------------
 # sp b3lyp/6-311g** Force nosymm scf=(qc)
 -----------------------------------------

 -------------------
 Title Card Required
 -------------------
 Symbolic Z-matrix:
 Charge =  0 Multiplicity = 2

                          Input orientation:
 ---------------------------------------------------------------------
 Center     Atomic      Atomic             Coordinates (Angstroms)
 Number     Number       Type             X           Y           Z
 ---------------------------------------------------------------------
      1          1           0        0.000000    0.000000    0.000000
      2          1           0       -1.900000    0.000000    0.000000
      3          9           0        1.250000    0.000000    0.000000
 ---------------------------------------------------------------------

 SCF Done:  E(UB3LYP) =  -100.916849257     a.u. after    8 cycles

 Alpha  occ. eigenvalues --  -24.63600  -1.11201  -0.47210  -0.36987  -0.36684
 Alpha  occ. eigenvalues --   -0.36684
 Alpha virt. eigenvalues --   -0.04148   0.23172   0.28276   0.93653   0.93653
 Alpha virt. eigenvalues --    1.01651   1.08928   1.19884   1.19884   1.35568
 Alpha virt. eigenvalues --    1.35568   1.46270   1.70752   2.13644   2.32079

  Beta  occ. eigenvalues --  -24.63354  -1.10575  -0.45921  -0.36457  -0.36457
  Beta virt. eigenvalues --   -0.15877  -0.00634   0.27618   0.32925   0.93645
  Beta virt. eigenvalues --    0.93645   1.02353   1.16601   1.33176   1.33176
  Beta virt. eigenvalues --    1.39760   1.39760   1.54705   1.72717   2.25298

 Mulliken charges and spin densities:
               1          2
     1  H    0.329370  -0.021798
     2  H    0.035140   0.947795
     3  F   -0.364510   0.074003
 Sum of Mulliken charges =   0.00000   1.00000

 Dipole moment (field-independent basis, Debye):
    X=             -2.7126    Y=              0.0000    Z=             -0.0000  Tot=              2.7126
 Quadrupole moment (field-independent basis, Debye-Ang):
   XX=             -8.2880   YY=             -7.1116   ZZ=             -7.1116
   XY=             -0.0000   XZ=             -0.0000   YZ=             -0.0000

  Exact polarizability:      18.032       0.000       2.365      -0.000       0.000       2.365
 Approx polarizability:      22.908      -0.000       2.324      -0.000      -0.000       2.324

 ******    1 imaginary frequencies (negative Signs) ******

                      1                      2                      3
                      A                      A                      A
 Frequencies --   -932.5476               303.1622              1138.0025
 Red. masses --      1.0151                 1.0999                 1.0237
 Frc consts  --      0.5201                 0.0596                 0.7811
 IR Inten    --    202.1592                25.1030                95.5742

                      4
                      A
 Frequencies --   1138.0025
 Red. masses --      1.0237
 Frc consts  --      0.7811
 IR Inten    --     95.5742

 - Thermochemistry -
 -------------------
 Temperature   298.150 Kelvin.  Pressure   1.00000 Atm.
 Atom     1 has atomic number  1 and mass   1.00783

 Molecular mass:    21.01405 amu.
 Principal axes and moments of inertia in atomic units:
                           1         2         3
     Eigenvalues --     0.00000  37.99294  37.99294
           X            1.00000  -0.00000   0.00000
           Y            0.00000   1.00000   0.00000
           Z            0.00000   0.00000   1.00000
 This molecule is a prolate symmetric top.
 Rotational symmetry number  1.
 Rotational temperature (Kelvin)      2.27974
 Rotational constant (GHZ):          47.502011
    1 imaginary frequencies ignored.
 Zero-point vibrational energy      15426.8 (Joules/Mol)
                                    3.68710 (Kcal/Mol)
 Warning -- explicit consideration of   1 degrees of freedom as
           vibrations may cause significant error
 Vibrational temperatures:    436.18  1637.33  1637.33
          (Kelvin)

 Zero-point correction=                           0.005876 (Hartree/Particle)
 Thermal correction to Energy=                    0.008695
 Thermal correction to Enthalpy=                  0.009640
 Thermal correction to Gibbs Free Energy=        -0.013938
 Sum of electronic and zero-point Energies=           -100.910973
 Sum of electronic and thermal Energies=              -100.908154
 Sum of electronic and thermal Enthalpies=            -100.907210
 Sum of electronic and thermal Free Energies=         -100.930787

                     E (Thermal)             CV                S
                      KCal/Mol        Cal/Mol-Kelvin    Cal/Mol-Kelvin
 Total                    5.456              7.134             49.623
 Electronic               0.000              0.000              1.377
 Translational            0.889              2.981             35.068
 Rotational               0.592              1.987             11.672
 Vibrational              3.975              2.166              1.506
 Vibration     1          0.695              1.668              1.399

 Normal termination of Gaussian 16 at Fri Aug 22 16:12:32 2025.
