 Gaussian 16, Revision C.01,
 Gaussian 16:  ES64L-G16RevC.01  3-Jul-2019

 -----------------------------------------
 # sp b3lyp/6-311g** Force nosymm scf=(qc)
 -----------------------------------------

 -------------------
 Title Card Required
 -------------------
 Symbolic Z-matrix:
 Charge =  0 Multiplicity = 2

                          Input orientation:
 ---------------------------------------------------------------------
 Center     Atomic      Atomic             Coordinates (Angstroms)
 Number     Number       Type             X           Y           Z
 ---------------------------------------------------------------------
      1          1           0        0.000000    0.000000    0.000000
      2          1           0       -0.950000    0.000000    0.000000
      3          9           0        1.850000    0.000000    0.000000
 ---------------------------------------------------------------------

 SCF Done:  E(UB3LYP) =  -100.919796129     a.u. after    8 cycles

 Alpha  occ. eigenvalues --  -24.72843  -1.19167  -0.53273  -0.43778  -0.43778
 Alpha  occ. eigenvalues --   -0.41863
 Alpha virt. eigenvalues --    0.02520   0.20794   0.37925   0.90851   0.90851
 Alpha virt. eigenvalues --    0.93048   1.06975   1.06975   1.11639   1.57769
 Alpha virt. eigenvalues --    1.66957   1.66957   2.19564   2.34265   2.66657

  Beta  occ. eigenvalues --  -24.70004  -1.11156  -0.42308  -0.40965  -0.40965
  Beta virt. eigenvalues --   -0.24919   0.03947   0.21634   0.38695   0.92071
  Beta virt. eigenvalues --    0.92071   1.00440   1.08322   1.08322   1.14519
  Beta virt. eigenvalues --    1.60318   1.67788   1.67788   2.21015   2.35727

 Mulliken charges and spin densities:
               1          2
     1  H    0.045087  -0.061177
     2  H    0.042705   0.175988
     3  F   -0.087793   0.885189
 Sum of Mulliken charges =   0.00000   1.00000

 Dipole moment (field-independent basis, Debye):
    X=             -0.9695    Y=              0.0000    Z=              0.0000  Tot=              0.9695
 Quadrupole moment (field-independent basis, Debye-Ang):
   XX=             -6.6499   YY=             -7.1123   ZZ=             -7.1123
   XY=             -0.0000   XZ=              0.0000   YZ=             -0.0000

  Exact polarizability:      28.437       0.000       2.205      -0.000       0.000       2.205
 Approx polarizability:      37.111       0.000       2.230       0.000       0.000       2.230

 ******    1 imaginary frequencies (negative Signs) ******

                      1                      2                      3
                      A                      A                      A
 Frequencies --   -519.5539              1380.1649              1380.1649
 Red. masses --      1.1056                 1.0119                 1.0119
 Frc consts  --      0.1758                 1.1356                 1.1356
 IR Inten    --    159.3463                 0.0147                 0.0147

                      4
                      A
 Frequencies --   1875.8398
 Red. masses --      1.0103
 Frc consts  --      2.0945
 IR Inten    --    616.3657

 - Thermochemistry -
 -------------------
 Temperature   298.150 Kelvin.  Pressure   1.00000 Atm.
 Atom     1 has atomic number  1 and mass   1.00783

 Molecular mass:    21.01405 amu.
 Principal axes and moments of inertia in atomic units:
                           1         2         3
     Eigenvalues --     0.00000  36.80164  36.80164
           X            1.00000  -0.00000   0.00000
           Y            0.00000   1.00000   0.00000
           Z            0.00000   0.00000   1.00000
 This molecule is a prolate symmetric top.
 Rotational symmetry number  1.
 Rotational temperature (Kelvin)      2.35353
 Rotational constant (GHZ):          49.039694
    1 imaginary frequencies ignored.
 Zero-point vibrational energy      27730.5 (Joules/Mol)
                                    6.62774 (Kcal/Mol)
 Vibrational temperatures:   1985.75  1985.75  2698.92
          (Kelvin)

 Zero-point correction=                           0.010562 (Hartree/Particle)
 Thermal correction to Energy=                    0.012940
 Thermal correction to Enthalpy=                  0.013884
 Thermal correction to Gibbs Free Energy=        -0.008968
 Sum of electronic and zero-point Energies=           -100.909234
 Sum of electronic and thermal Energies=              -100.906857
 Sum of electronic and thermal Enthalpies=            -100.905912
 Sum of electronic and thermal Free Energies=         -100.928764

                     E (Thermal)             CV                S
                      KCal/Mol        Cal/Mol-Kelvin    Cal/Mol-Kelvin
 Total                    8.120              5.213             48.095
 Electronic               0.000              0.000              1.377
 Translational            0.889              2.981             35.068
 Rotational               0.592              1.987             11.609
 Vibrational              6.638              0.245              0.041

 Normal termination of Gaussian 16 at Fri Aug 22 16:45:43 2025.
