 Gaussian 16, Revision C.01,
 Gaussian 16:  ES64L-G16RevC.01  3-Jul-2019

 -----------------------------------------
 # sp b3lyp/6-311g** Force nosymm scf=(qc)
 -----------------------------------------

 -------------------
 Title Card Required
 -------------------
 Symbolic Z-matrix:
 Charge =  0 Multiplicity = 2

                          Input orientation:
 ---------------------------------------------------------------------
 Center     Atomic      Atomic             Coordinates (Angstroms)
 Number     Number       Type             X           Y           Z
 ---------------------------------------------------------------------
      1          1           0        0.000000    0.000000    0.000000
      2          1           0       -1.850000    0.000000    0.000000
      3          9           0        1.200000    0.000000    0.000000
 ---------------------------------------------------------------------

 SCF Done:  E(UB3LYP) =  -100.928735746     a.u. after    6 cycles

 Alpha  occ. eigenvalues --  -24.63584  -1.11809  -0.48097  -0.37010  -0.36925
 Alpha  occ. eigenvalues --   -0.36925
 Alpha virt. eigenvalues --   -0.02111   0.22994   0.28881   0.93747   0.93747
 Alpha virt. eigenvalues --    1.01040   1.09182   1.19673   1.19673   1.36072
 Alpha virt. eigenvalues --    1.36072   1.49130   1.72850   2.15880   2.33532

  Beta  occ. eigenvalues --  -24.63353  -1.11227  -0.46822  -0.36715  -0.36715
  Beta virt. eigenvalues --   -0.15676   0.01217   0.28026   0.32910   0.93754
  Beta virt. eigenvalues --    0.93754   1.01712   1.17466   1.32951   1.32951
  Beta virt. eigenvalues --    1.40259   1.40259   1.55886   1.76235   2.27832

 Mulliken charges and spin densities:
               1          2
     1  H    0.326467  -0.015199
     2  H    0.034376   0.947040
     3  F   -0.360843   0.068159
 Sum of Mulliken charges =   0.00000   1.00000

 Dipole moment (field-independent basis, Debye):
    X=             -2.6398    Y=              0.0000    Z=              0.0000  Tot=              2.6398
 Quadrupole moment (field-independent basis, Debye-Ang):
   XX=             -8.1507   YY=             -7.0656   ZZ=             -7.0656
   XY=              0.0000   XZ=              0.0000   YZ=             -0.0000

  Exact polarizability:      16.733      -0.000       2.394       0.000       0.000       2.394
 Approx polarizability:      20.541       0.000       2.360       0.000       0.000       2.360

 ******    1 imaginary frequencies (negative Signs) ******

                      1                      2                      3
                      A                      A                      A
 Frequencies --   -644.7431               678.7659              1149.1189
 Red. masses --      1.0098                 1.1061                 1.0239
 Frc consts  --      0.2473                 0.3002                 0.7966
 IR Inten    --    114.1709               117.2011                98.6386

                      4
                      A
 Frequencies --   1149.1189
 Red. masses --      1.0239
 Frc consts  --      0.7966
 IR Inten    --     98.6386

 - Thermochemistry -
 -------------------
 Temperature   298.150 Kelvin.  Pressure   1.00000 Atm.
 Atom     1 has atomic number  1 and mass   1.00783

 Molecular mass:    21.01405 amu.
 Principal axes and moments of inertia in atomic units:
                           1         2         3
     Eigenvalues --     0.00000  35.54464  35.54464
           X            1.00000  -0.00000   0.00000
           Y            0.00000   1.00000   0.00000
           Z            0.00000   0.00000   1.00000
 This molecule is a prolate symmetric top.
 Rotational symmetry number  1.
 Rotational temperature (Kelvin)      2.43676
 Rotational constant (GHZ):          50.773938
    1 imaginary frequencies ignored.
 Zero-point vibrational energy      17806.4 (Joules/Mol)
                                    4.25584 (Kcal/Mol)
 Vibrational temperatures:    976.59  1653.33  1653.33
          (Kelvin)

 Zero-point correction=                           0.006782 (Hartree/Particle)
 Thermal correction to Energy=                    0.009305
 Thermal correction to Enthalpy=                  0.010249
 Thermal correction to Gibbs Free Energy=        -0.012756
 Sum of electronic and zero-point Energies=           -100.921954
 Sum of electronic and thermal Energies=              -100.919431
 Sum of electronic and thermal Enthalpies=            -100.918486
 Sum of electronic and thermal Free Energies=         -100.941492

                     E (Thermal)             CV                S
                      KCal/Mol        Cal/Mol-Kelvin    Cal/Mol-Kelvin
 Total                    5.839              6.320             48.419
 Electronic               0.000              0.000              1.377
 Translational            0.889              2.981             35.068
 Rotational               0.592              1.987             11.540
 Vibrational              4.358              1.352              0.434

 Normal termination of Gaussian 16 at Fri Aug 22 16:10:03 2025.
