 Gaussian 16, Revision C.01,
 Gaussian 16:  ES64L-G16RevC.01  3-Jul-2019

 -----------------------------------------
 # sp b3lyp/6-311g** Force nosymm scf=(qc)
 -----------------------------------------

 -------------------
 Title Card Required
 -------------------
 Symbolic Z-matrix:
 Charge =  0 Multiplicity = 2

                          Input orientation:
 ---------------------------------------------------------------------
 Center     Atomic      Atomic             Coordinates (Angstroms)
 Number     Number       Type             X           Y           Z
 ---------------------------------------------------------------------
      1          1           0        0.000000    0.000000    0.000000
      2          1           0       -3.350000    0.000000    0.000000
      3          9           0        3.800000    0.000000    0.000000
 ---------------------------------------------------------------------

 SCF Done:  E(UB3LYP) =  -100.758919791     a.u. after   29 cycles

 Alpha  occ. eigenvalues --  -24.75756  -1.21692  -0.54880  -0.46078  -0.46078
 Alpha  occ. eigenvalues --   -0.32300
 Alpha virt. eigenvalues --   -0.07004   0.24522   0.37262   0.86858   0.91249
 Alpha virt. eigenvalues --    0.91249   1.01263   1.25210   1.25210   1.25461
 Alpha virt. eigenvalues --    1.45122   1.45357   1.45357   2.15294   2.40743

  Beta  occ. eigenvalues --  -24.72618  -1.12671  -0.42933  -0.42933  -0.32565
  Beta virt. eigenvalues --   -0.25671  -0.06710   0.24337   0.37716   0.92746
  Beta virt. eigenvalues --    0.92746   0.96163   1.05360   1.24916   1.24916
  Beta virt. eigenvalues --    1.25149   1.45586   1.45814   1.45814   2.15350

 Mulliken charges and spin densities:
               1          2
     1  H    0.004549  -0.991680
     2  H    0.000146   0.996888
     3  F   -0.004695   0.994792
 Sum of Mulliken charges =  -0.00000   1.00000

 Dipole moment (field-independent basis, Debye):
    X=             -0.0945    Y=              0.0000    Z=              0.0000  Tot=              0.0945
 Quadrupole moment (field-independent basis, Debye-Ang):
   XX=             -7.0278   YY=             -7.6262   ZZ=             -7.6262
   XY=              0.0000   XZ=              0.0000   YZ=              0.0000

  Exact polarizability:      15.935       0.000       2.031       0.000       0.000       2.031
 Approx polarizability:      11.790       0.000       1.935       0.000       0.000       1.935

 ******    2 imaginary frequencies (negative Signs) ******

                      1                      2                      3
                      A                      A                      A
 Frequencies --   -234.6543               -88.2436                79.2740
 Red. masses --      1.0116                 1.1040                 1.0165
 Frc consts  --      0.0328                 0.0051                 0.0038
 IR Inten    --      2.2627                 1.1061                 0.0194

                      4
                      A
 Frequencies --     79.2740
 Red. masses --      1.0165
 Frc consts  --      0.0038
 IR Inten    --      0.0194

 - Thermochemistry -
 -------------------
 Temperature   298.150 Kelvin.  Pressure   1.00000 Atm.
 Atom     1 has atomic number  1 and mass   1.00783

 Molecular mass:    21.01405 amu.
 Principal axes and moments of inertia in atomic units:
                           1         2         3
     Eigenvalues --     0.00000 215.26400 215.26400
           X            1.00000  -0.00000   0.00000
           Y            0.00000   1.00000   0.00000
           Z            0.00000   0.00000   1.00000
 This molecule is a prolate symmetric top.
 Rotational symmetry number  1.
 Rotational temperature (Kelvin)      0.40236
 Rotational constant (GHZ):           8.383851
    2 imaginary frequencies ignored.
 Zero-point vibrational energy        948.3 (Joules/Mol)
                                    0.22666 (Kcal/Mol)
 Warning -- explicit consideration of   2 degrees of freedom as
           vibrations may cause significant error
 Vibrational temperatures:    114.06   114.06
          (Kelvin)

 Zero-point correction=                           0.000361 (Hartree/Particle)
 Thermal correction to Energy=                    0.004272
 Thermal correction to Enthalpy=                  0.005216
 Thermal correction to Gibbs Free Energy=        -0.022998
 Sum of electronic and zero-point Energies=           -100.758559
 Sum of electronic and thermal Energies=              -100.754648
 Sum of electronic and thermal Enthalpies=            -100.753704
 Sum of electronic and thermal Free Energies=         -100.781918

                     E (Thermal)             CV                S
                      KCal/Mol        Cal/Mol-Kelvin    Cal/Mol-Kelvin
 Total                    2.681              8.894             59.382
 Electronic               0.000              0.000              1.377
 Translational            0.889              2.981             35.068
 Rotational               0.592              1.987             15.119
 Vibrational              1.199              3.926              7.818
 Vibration     1          0.600              1.963              3.909
 Vibration     2          0.600              1.963              3.909

 Normal termination of Gaussian 16 at Sat Aug 23 00:52:02 2025.
