 Gaussian 16, Revision C.01,
 Gaussian 16:  ES64L-G16RevC.01  3-Jul-2019

 -----------------------------------------
 # sp b3lyp/6-311g** Force nosymm scf=(qc)
 -----------------------------------------

 -------------------
 Title Card Required
 -------------------
 Symbolic Z-matrix:
 Charge =  0 Multiplicity = 2

                          Input orientation:
 ---------------------------------------------------------------------
 Center     Atomic      Atomic             Coordinates (Angstroms)
 Number     Number       Type             X           Y           Z
 ---------------------------------------------------------------------
      1          1           0        0.000000    0.000000    0.000000
      2          1           0       -1.800000    0.000000    0.000000
      3          9           0        3.550000    0.000000    0.000000
 ---------------------------------------------------------------------

 SCF Done:  E(UB3LYP) =  -100.786199278     a.u. after   63 cycles

 Alpha  occ. eigenvalues --  -24.75942  -1.21861  -0.55053  -0.46252  -0.46242
 Alpha  occ. eigenvalues --   -0.33150
 Alpha virt. eigenvalues --   -0.10935   0.25803   0.31217   0.86828   0.91106
 Alpha virt. eigenvalues --    0.91536   1.01425   1.09890   1.24475   1.24475
 Alpha virt. eigenvalues --    1.37538   1.37540   1.61280   2.14833   2.39535

  Beta  occ. eigenvalues --  -24.72804  -1.12838  -0.43110  -0.43095  -0.33139
  Beta virt. eigenvalues --   -0.25843  -0.10872   0.25743   0.31454   0.92603
  Beta virt. eigenvalues --    0.92900   0.96248   1.05501   1.09909   1.24476
  Beta virt. eigenvalues --    1.24478   1.37623   1.37624   1.61380   2.15233

 Mulliken charges and spin densities:
               1          2
     1  H    0.000074  -0.718686
     2  H    0.003298   0.723692
     3  F   -0.003371   0.994994
 Sum of Mulliken charges =   0.00000   1.00000

 Dipole moment (field-independent basis, Debye):
    X=             -0.0945    Y=              0.0006    Z=              0.0009  Tot=              0.0945
 Quadrupole moment (field-independent basis, Debye-Ang):
   XX=             -6.4304   YY=             -7.6506   ZZ=             -7.5252
   XY=              0.2359   XZ=              0.3483   YZ=              0.1568

  Exact polarizability:     115.565       0.853       2.078      -0.069       0.081       2.138
 Approx polarizability:      41.023       0.138       2.032       0.204       0.106       2.116

 ******    2 imaginary frequencies (negative Signs) ******

                      1                      2                      3
                      A                      A                      A
 Frequencies --  -1782.8364              -153.5047               770.0430
 Red. masses --      1.0079                 1.1085                 1.0118
 Frc consts  --      1.8875                 0.0154                 0.3535
 IR Inten    --    668.9933                56.3873                 1.6054

                      4
                      A
 Frequencies --    770.7087
 Red. masses --      1.0118
 Frc consts  --      0.3541
 IR Inten    --      0.1246

 - Thermochemistry -
 -------------------
 Temperature   298.150 Kelvin.  Pressure   1.00000 Atm.
 Atom     1 has atomic number  1 and mass   1.00783

 Molecular mass:    21.01405 amu.
 Principal axes and moments of inertia in atomic units:
                           1         2         3
     Eigenvalues --     0.00000 134.69693 134.69693
           X            1.00000  -0.00000   0.00000
           Y            0.00000   1.00000   0.00000
           Z            0.00000   0.00000   1.00000
 This molecule is a prolate symmetric top.
 Rotational symmetry number  1.
 Rotational temperature (Kelvin)      0.64303
 Rotational constant (GHZ):          13.398532
    2 imaginary frequencies ignored.
 Zero-point vibrational energy       9215.7 (Joules/Mol)
                                    2.20262 (Kcal/Mol)
 Vibrational temperatures:   1107.92  1108.88
          (Kelvin)

 Zero-point correction=                           0.003510 (Hartree/Particle)
 Thermal correction to Energy=                    0.006045
 Thermal correction to Enthalpy=                  0.006990
 Thermal correction to Gibbs Free Energy=        -0.017289
 Sum of electronic and zero-point Energies=           -100.782689
 Sum of electronic and thermal Energies=              -100.780154
 Sum of electronic and thermal Enthalpies=            -100.779210
 Sum of electronic and thermal Free Energies=         -100.803488

                     E (Thermal)             CV                S
                      KCal/Mol        Cal/Mol-Kelvin    Cal/Mol-Kelvin
 Total                    3.794              6.370             51.098
 Electronic               0.000              0.000              1.377
 Translational            0.889              2.981             35.068
 Rotational               0.592              1.987             14.187
 Vibrational              2.312              1.402              0.466

 Normal termination of Gaussian 16 at Fri Aug 22 22:38:32 2025.
