 Gaussian 16, Revision C.01,
 Gaussian 16:  ES64L-G16RevC.01  3-Jul-2019

 -----------------------------------------
 # sp b3lyp/6-311g** Force nosymm scf=(qc)
 -----------------------------------------

 -------------------
 Title Card Required
 -------------------
 Symbolic Z-matrix:
 Charge =  0 Multiplicity = 2

                          Input orientation:
 ---------------------------------------------------------------------
 Center     Atomic      Atomic             Coordinates (Angstroms)
 Number     Number       Type             X           Y           Z
 ---------------------------------------------------------------------
      1          1           0        0.000000    0.000000    0.000000
      2          1           0       -2.550000    0.000000    0.000000
      3          9           0        1.150000    0.000000    0.000000
 ---------------------------------------------------------------------

 SCF Done:  E(UB3LYP) =  -100.937916963     a.u. after    6 cycles

 Alpha  occ. eigenvalues --  -24.64157  -1.12876  -0.48600  -0.37655  -0.37655
 Alpha  occ. eigenvalues --   -0.35136
 Alpha virt. eigenvalues --   -0.03249   0.24680   0.29349   0.93492   0.93492
 Alpha virt. eigenvalues --    1.00266   1.20812   1.22403   1.22403   1.33544
 Alpha virt. eigenvalues --    1.35097   1.35097   1.76717   2.13545   2.31140

  Beta  occ. eigenvalues --  -24.64123  -1.12792  -0.48459  -0.37625  -0.37625
  Beta virt. eigenvalues --   -0.10805  -0.01025   0.29306   0.36734   0.93492
  Beta virt. eigenvalues --    0.93492   1.00343   1.28365   1.35029   1.35029
  Beta virt. eigenvalues --    1.43887   1.43887   1.46576   1.76992   2.30775

 Mulliken charges and spin densities:
               1          2
     1  H    0.341796   0.000661
     2  H    0.008620   0.988965
     3  F   -0.350417   0.010375
 Sum of Mulliken charges =  -0.00000   1.00000

 Dipole moment (field-independent basis, Debye):
    X=             -2.3338    Y=             -0.0000    Z=              0.0000  Tot=              2.3338
 Quadrupole moment (field-independent basis, Debye-Ang):
   XX=             -8.4192   YY=             -7.0842   ZZ=             -7.0842
   XY=             -0.0000   XZ=              0.0000   YZ=              0.0000

  Exact polarizability:      11.409       0.000       2.367      -0.000       0.000       2.367
 Approx polarizability:      14.251       0.000       2.330       0.000       0.000       2.330

 ******    1 imaginary frequencies (negative Signs) ******

                      1                      2                      3
                      A                      A                      A
 Frequencies --   -149.6103              1184.9819              1184.9819
 Red. masses --      1.0507                 1.0297                 1.0297
 Frc consts  --      0.0139                 0.8519                 0.8519
 IR Inten    --      2.5202               137.7176               137.7176

                      4
                      A
 Frequencies --   1431.9167
 Red. masses --      1.0609
 Frc consts  --      1.2817
 IR Inten    --    116.9544

 - Thermochemistry -
 -------------------
 Temperature   298.150 Kelvin.  Pressure   1.00000 Atm.
 Atom     1 has atomic number  1 and mass   1.00783

 Molecular mass:    21.01405 amu.
 Principal axes and moments of inertia in atomic units:
                           1         2         3
     Eigenvalues --     0.00000  49.96997  49.96997
           X            1.00000  -0.00000   0.00000
           Y            0.00000   1.00000   0.00000
           Z            0.00000   0.00000   1.00000
 This molecule is a prolate symmetric top.
 Rotational symmetry number  1.
 Rotational temperature (Kelvin)      1.73332
 Rotational constant (GHZ):          36.116516
    1 imaginary frequencies ignored.
 Zero-point vibrational energy      22740.3 (Joules/Mol)
                                    5.43506 (Kcal/Mol)
 Vibrational temperatures:   1704.92  1704.92  2060.21
          (Kelvin)

 Zero-point correction=                           0.008661 (Hartree/Particle)
 Thermal correction to Energy=                    0.011064
 Thermal correction to Enthalpy=                  0.012008
 Thermal correction to Gibbs Free Energy=        -0.011162
 Sum of electronic and zero-point Energies=           -100.929256
 Sum of electronic and thermal Energies=              -100.926853
 Sum of electronic and thermal Enthalpies=            -100.925909
 Sum of electronic and thermal Free Energies=         -100.949079

                     E (Thermal)             CV                S
                      KCal/Mol        Cal/Mol-Kelvin    Cal/Mol-Kelvin
 Total                    6.943              5.493             48.766
 Electronic               0.000              0.000              1.377
 Translational            0.889              2.981             35.068
 Rotational               0.592              1.987             12.216
 Vibrational              5.461              0.525              0.104

 Normal termination of Gaussian 16 at Fri Aug 22 16:08:07 2025.
