 Gaussian 16, Revision C.01,
 Gaussian 16:  ES64L-G16RevC.01  3-Jul-2019

 -----------------------------------------
 # sp b3lyp/6-311g** Force nosymm scf=(qc)
 -----------------------------------------

 -------------------
 Title Card Required
 -------------------
 Symbolic Z-matrix:
 Charge =  0 Multiplicity = 2

                          Input orientation:
 ---------------------------------------------------------------------
 Center     Atomic      Atomic             Coordinates (Angstroms)
 Number     Number       Type             X           Y           Z
 ---------------------------------------------------------------------
      1          1           0        0.000000    0.000000    0.000000
      2          1           0       -3.250000    0.000000    0.000000
      3          9           0        2.600000    0.000000    0.000000
 ---------------------------------------------------------------------

 SCF Done:  E(UB3LYP) =  -100.765866488     a.u. after   19 cycles

 Alpha  occ. eigenvalues --  -24.72304  -1.18485  -0.51412  -0.43182  -0.43182
 Alpha  occ. eigenvalues --   -0.32930
 Alpha virt. eigenvalues --   -0.10032   0.23868   0.35198   0.89962   0.93310
 Alpha virt. eigenvalues --    0.93310   1.06086   1.24591   1.24591   1.25011
 Alpha virt. eigenvalues --    1.41327   1.41327   1.43660   2.14881   2.36615

  Beta  occ. eigenvalues --  -24.69413  -1.10241  -0.40297  -0.40297  -0.34970
  Beta virt. eigenvalues --   -0.23706  -0.07201   0.24295   0.37422   0.94709
  Beta virt. eigenvalues --    0.94709   0.97222   1.08843   1.22416   1.22416
  Beta virt. eigenvalues --    1.27275   1.45177   1.45400   1.45400   2.13870

 Mulliken charges and spin densities:
               1          2
     1  H    0.075083  -0.910388
     2  H    0.001493   0.996118
     3  F   -0.076576   0.914271
 Sum of Mulliken charges =  -0.00000   1.00000

 Dipole moment (field-independent basis, Debye):
    X=             -1.0395    Y=             -0.0000    Z=             -0.0000  Tot=              1.0395
 Quadrupole moment (field-independent basis, Debye-Ang):
   XX=             -9.0589   YY=             -7.5866   ZZ=             -7.5866
   XY=             -0.0000   XZ=             -0.0000   YZ=             -0.0000

  Exact polarizability:      32.855      -0.000       2.023      -0.000      -0.000       2.023
 Approx polarizability:      39.206      -0.000       1.920      -0.000       0.000       1.920

 ******    2 imaginary frequencies (negative Signs) ******

                      1                      2                      3
                      A                      A                      A
 Frequencies --   -571.5804              -160.0169               218.7320
 Red. masses --      1.0490                 1.0626                 1.0209
 Frc consts  --      0.2019                 0.0160                 0.0288
 IR Inten    --     70.3523                 1.1013                 5.2713

                      4
                      A
 Frequencies --    218.7320
 Red. masses --      1.0209
 Frc consts  --      0.0288
 IR Inten    --      5.2713

 - Thermochemistry -
 -------------------
 Temperature   298.150 Kelvin.  Pressure   1.00000 Atm.
 Atom     1 has atomic number  1 and mass   1.00783

 Molecular mass:    21.01405 amu.
 Principal axes and moments of inertia in atomic units:
                           1         2         3
     Eigenvalues --     0.00000 135.17180 135.17180
           X            1.00000  -0.00000   0.00000
           Y            0.00000   1.00000   0.00000
           Z            0.00000   0.00000   1.00000
 This molecule is a prolate symmetric top.
 Rotational symmetry number  1.
 Rotational temperature (Kelvin)      0.64077
 Rotational constant (GHZ):          13.351462
    2 imaginary frequencies ignored.
 Zero-point vibrational energy       2616.6 (Joules/Mol)
                                    0.62539 (Kcal/Mol)
 Warning -- explicit consideration of   2 degrees of freedom as
           vibrations may cause significant error
 Vibrational temperatures:    314.71   314.71
          (Kelvin)

 Zero-point correction=                           0.000997 (Hartree/Particle)
 Thermal correction to Energy=                    0.004421
 Thermal correction to Enthalpy=                  0.005365
 Thermal correction to Gibbs Free Energy=        -0.020567
 Sum of electronic and zero-point Energies=           -100.764870
 Sum of electronic and thermal Energies=              -100.761446
 Sum of electronic and thermal Enthalpies=            -100.760501
 Sum of electronic and thermal Free Energies=         -100.786433

                     E (Thermal)             CV                S
                      KCal/Mol        Cal/Mol-Kelvin    Cal/Mol-Kelvin
 Total                    2.774              8.593             54.579
 Electronic               0.000              0.000              1.377
 Translational            0.889              2.981             35.068
 Rotational               0.592              1.987             14.194
 Vibrational              1.293              3.625              3.939
 Vibration     1          0.646              1.813              1.970
 Vibration     2          0.646              1.813              1.970

 Normal termination of Gaussian 16 at Fri Aug 22 18:04:58 2025.
