 Gaussian 16, Revision C.01,
 Gaussian 16:  ES64L-G16RevC.01  3-Jul-2019

 -----------------------------------------
 # sp b3lyp/6-311g** Force nosymm scf=(qc)
 -----------------------------------------

 -------------------
 Title Card Required
 -------------------
 Symbolic Z-matrix:
 Charge =  0 Multiplicity = 2

                          Input orientation:
 ---------------------------------------------------------------------
 Center     Atomic      Atomic             Coordinates (Angstroms)
 Number     Number       Type             X           Y           Z
 ---------------------------------------------------------------------
      1          1           0        0.000000    0.000000    0.000000
      2          1           0       -3.650000    0.000000    0.000000
      3          9           0        0.900000    0.000000    0.000000
 ---------------------------------------------------------------------

 SCF Done:  E(UB3LYP) =  -100.971454878     a.u. after    5 cycles

 Alpha  occ. eigenvalues --  -24.64001  -1.19052  -0.53864  -0.39661  -0.39661
 Alpha  occ. eigenvalues --   -0.33502
 Alpha virt. eigenvalues --    0.03123   0.24182   0.39642   0.94328   0.94328
 Alpha virt. eigenvalues --    0.97742   1.23876   1.24008   1.24008   1.29333
 Alpha virt. eigenvalues --    1.37257   1.37257   2.00444   2.14356   2.37198

  Beta  occ. eigenvalues --  -24.64000  -1.19050  -0.53862  -0.39660  -0.39660
  Beta virt. eigenvalues --   -0.05299   0.03535   0.37793   0.40753   0.94328
  Beta virt. eigenvalues --    0.94328   0.97739   1.29154   1.37257   1.37257
  Beta virt. eigenvalues --    1.50487   1.50933   1.50933   2.00558   2.37118

 Mulliken charges and spin densities:
               1          2
     1  H    0.295683   0.000462
     2  H    0.000657   0.999231
     3  F   -0.296340   0.000307
 Sum of Mulliken charges =   0.00000   1.00000

 Dipole moment (field-independent basis, Debye):
    X=             -1.8899    Y=              0.0000    Z=             -0.0000  Tot=              1.8899
 Quadrupole moment (field-independent basis, Debye-Ang):
   XX=             -7.9261   YY=             -6.8690   ZZ=             -6.8690
   XY=              0.0000   XZ=              0.0000   YZ=             -0.0000

  Exact polarizability:       5.462      -0.000       2.424      -0.000      -0.000       2.424
 Approx polarizability:       6.399      -0.000       2.402      -0.000      -0.000       2.402

 ******    3 imaginary frequencies (negative Signs) ******

                      1                      2                      3
                      A                      A                      A
 Frequencies --   -626.0379              -626.0379               -41.5128
 Red. masses --      1.0391                 1.0391                 1.0532
 Frc consts  --      0.2399                 0.2399                 0.0011
 IR Inten    --    182.3762               182.3762                 0.0261

                      4
                      A
 Frequencies --   4432.1170
 Red. masses --      1.0583
 Frc consts  --     12.2487
 IR Inten    --     98.5138

 - Thermochemistry -
 -------------------
 Temperature   298.150 Kelvin.  Pressure   1.00000 Atm.
 Atom     1 has atomic number  1 and mass   1.00783

 Molecular mass:    21.01405 amu.
 Principal axes and moments of inertia in atomic units:
                           1         2         3
     Eigenvalues --     0.00000  72.29681  72.29681
           X            1.00000  -0.00000   0.00000
           Y            0.00000   1.00000   0.00000
           Z            0.00000   0.00000   1.00000
 This molecule is a prolate symmetric top.
 Rotational symmetry number  1.
 Rotational temperature (Kelvin)      1.19803
 Rotational constant (GHZ):          24.962942
    3 imaginary frequencies ignored.
 Zero-point vibrational energy      26509.9 (Joules/Mol)
                                    6.33603 (Kcal/Mol)
 Vibrational temperatures:   6376.83
          (Kelvin)

 Zero-point correction=                           0.010097 (Hartree/Particle)
 Thermal correction to Energy=                    0.012458
 Thermal correction to Enthalpy=                  0.013402
 Thermal correction to Gibbs Free Energy=        -0.010068
 Sum of electronic and zero-point Energies=           -100.961358
 Sum of electronic and thermal Energies=              -100.958997
 Sum of electronic and thermal Enthalpies=            -100.958053
 Sum of electronic and thermal Free Energies=         -100.981523

                     E (Thermal)             CV                S
                      KCal/Mol        Cal/Mol-Kelvin    Cal/Mol-Kelvin
 Total                    7.817              4.968             49.396
 Electronic               0.000              0.000              1.377
 Translational            0.889              2.981             35.068
 Rotational               0.592              1.987             12.950
 Vibrational              6.336              0.000              0.000

 Normal termination of Gaussian 16 at Fri Aug 22 15:56:52 2025.
