 Gaussian 16, Revision C.01,
 Gaussian 16:  ES64L-G16RevC.01  3-Jul-2019

 -----------------------------------------
 # sp b3lyp/6-311g** Force nosymm scf=(qc)
 -----------------------------------------

 -------------------
 Title Card Required
 -------------------
 Symbolic Z-matrix:
 Charge =  0 Multiplicity = 2

                          Input orientation:
 ---------------------------------------------------------------------
 Center     Atomic      Atomic             Coordinates (Angstroms)
 Number     Number       Type             X           Y           Z
 ---------------------------------------------------------------------
      1          1           0        0.000000    0.000000    0.000000
      2          1           0       -2.600000    0.000000    0.000000
      3          9           0        1.900000    0.000000    0.000000
 ---------------------------------------------------------------------

 SCF Done:  E(UB3LYP) =  -100.797364134     a.u. after   14 cycles

 Alpha  occ. eigenvalues --  -24.67302  -1.13586  -0.46231  -0.38954  -0.38954
 Alpha  occ. eigenvalues --   -0.34871
 Alpha virt. eigenvalues --   -0.14256   0.23555   0.30174   0.91065   0.94980
 Alpha virt. eigenvalues --    0.94980   1.06194   1.22741   1.22741   1.25018
 Alpha virt. eigenvalues --    1.34351   1.34351   1.65390   2.13781   2.27826

  Beta  occ. eigenvalues --  -24.65124  -1.07538  -0.38412  -0.36817  -0.36817
  Beta virt. eigenvalues --   -0.20128  -0.09522   0.24230   0.35121   0.92533
  Beta virt. eigenvalues --    0.95332   0.95332   1.08559   1.22979   1.22979
  Beta virt. eigenvalues --    1.41908   1.41908   1.42681   1.60083   2.13284

 Mulliken charges and spin densities:
               1          2
     1  H    0.207364  -0.661197
     2  H    0.015562   0.976550
     3  F   -0.222925   0.684647
 Sum of Mulliken charges =   0.00000   1.00000

 Dipole moment (field-independent basis, Debye):
    X=             -2.2741    Y=              0.0000    Z=              0.0000  Tot=              2.2741
 Quadrupole moment (field-independent basis, Debye-Ang):
   XX=             -9.5732   YY=             -7.4909   ZZ=             -7.4909
   XY=              0.0000   XZ=              0.0000   YZ=              0.0000

  Exact polarizability:      33.943      -0.000       2.077      -0.000       0.000       2.077
 Approx polarizability:      43.346      -0.000       1.968      -0.000      -0.000       1.968

 ******    2 imaginary frequencies (negative Signs) ******

                      1                      2                      3
                      A                      A                      A
 Frequencies --  -1353.8783              -348.5854               570.8826
 Red. masses --      1.0493                 1.0623                 1.0222
 Frc consts  --      1.1332                 0.0761                 0.1963
 IR Inten    --    104.1285                 9.9864                36.2160

                      4
                      A
 Frequencies --    570.8826
 Red. masses --      1.0222
 Frc consts  --      0.1963
 IR Inten    --     36.2160

 - Thermochemistry -
 -------------------
 Temperature   298.150 Kelvin.  Pressure   1.00000 Atm.
 Atom     1 has atomic number  1 and mass   1.00783

 Molecular mass:    21.01405 amu.
 Principal axes and moments of inertia in atomic units:
                           1         2         3
     Eigenvalues --     0.00000  78.80236  78.80236
           X            1.00000  -0.00000   0.00000
           Y            0.00000   1.00000   0.00000
           Z            0.00000   0.00000   1.00000
 This molecule is a prolate symmetric top.
 Rotational symmetry number  1.
 Rotational temperature (Kelvin)      1.09913
 Rotational constant (GHZ):          22.902120
    2 imaginary frequencies ignored.
 Zero-point vibrational energy       6829.3 (Joules/Mol)
                                    1.63224 (Kcal/Mol)
 Warning -- explicit consideration of   2 degrees of freedom as
           vibrations may cause significant error
 Vibrational temperatures:    821.37   821.37
          (Kelvin)

 Zero-point correction=                           0.002601 (Hartree/Particle)
 Thermal correction to Energy=                    0.005315
 Thermal correction to Enthalpy=                  0.006259
 Thermal correction to Gibbs Free Energy=        -0.017769
 Sum of electronic and zero-point Energies=           -100.794763
 Sum of electronic and thermal Energies=              -100.792049
 Sum of electronic and thermal Enthalpies=            -100.791105
 Sum of electronic and thermal Free Energies=         -100.815133

                     E (Thermal)             CV                S
                      KCal/Mol        Cal/Mol-Kelvin    Cal/Mol-Kelvin
 Total                    3.335              7.156             50.572
 Electronic               0.000              0.000              1.377
 Translational            0.889              2.981             35.068
 Rotational               0.592              1.987             13.122
 Vibrational              1.854              2.188              1.005
 Vibration     1          0.927              1.094              0.503
 Vibration     2          0.927              1.094              0.503

 Normal termination of Gaussian 16 at Fri Aug 22 16:50:33 2025.
