 Gaussian 16, Revision C.01,
 Gaussian 16:  ES64L-G16RevC.01  3-Jul-2019

 -----------------------------------------
 # sp b3lyp/6-311g** Force nosymm scf=(qc)
 -----------------------------------------

 -------------------
 Title Card Required
 -------------------
 Symbolic Z-matrix:
 Charge =  0 Multiplicity = 2

                          Input orientation:
 ---------------------------------------------------------------------
 Center     Atomic      Atomic             Coordinates (Angstroms)
 Number     Number       Type             X           Y           Z
 ---------------------------------------------------------------------
      1          1           0        0.000000    0.000000    0.000000
      2          1           0       -3.000000    0.000000    0.000000
      3          9           0        3.150000    0.000000    0.000000
 ---------------------------------------------------------------------

 SCF Done:  E(UB3LYP) =  -100.761073137     a.u. after   23 cycles

 Alpha  occ. eigenvalues --  -24.74598  -1.20619  -0.53718  -0.45104  -0.45104
 Alpha  occ. eigenvalues --   -0.32615
 Alpha virt. eigenvalues --   -0.08666   0.24776   0.35303   0.88896   0.91965
 Alpha virt. eigenvalues --    0.91965   1.03122   1.24923   1.24923   1.25689
 Alpha virt. eigenvalues --    1.42976   1.42976   1.43207   2.15574   2.39296

  Beta  occ. eigenvalues --  -24.71536  -1.11835  -0.42038  -0.42038  -0.33428
  Beta virt. eigenvalues --   -0.25066  -0.07590   0.24659   0.36715   0.93438
  Beta virt. eigenvalues --    0.93438   0.97783   1.07001   1.23971   1.23971
  Beta virt. eigenvalues --    1.24717   1.44643   1.44680   1.44680   2.16104

 Mulliken charges and spin densities:
               1          2
     1  H    0.025515  -0.963069
     2  H    0.001266   0.992579
     3  F   -0.026781   0.970490
 Sum of Mulliken charges =  -0.00000   1.00000

 Dipole moment (field-independent basis, Debye):
    X=             -0.4516    Y=             -0.0000    Z=              0.0000  Tot=              0.4516
 Quadrupole moment (field-independent basis, Debye-Ang):
   XX=             -7.9042   YY=             -7.6276   ZZ=             -7.6276
   XY=             -0.0000   XZ=              0.0000   YZ=              0.0000

  Exact polarizability:      33.598      -0.000       2.024       0.000       0.000       2.024
 Approx polarizability:      30.456      -0.000       1.927       0.000      -0.000       1.927

 ******    2 imaginary frequencies (negative Signs) ******

                      1                      2                      3
                      A                      A                      A
 Frequencies --   -407.5792              -171.7310               147.8456
 Red. masses --      1.0195                 1.0947                 1.0174
 Frc consts  --      0.0998                 0.0190                 0.0131
 IR Inten    --     23.9295                 6.2293                 0.5702

                      4
                      A
 Frequencies --    147.8456
 Red. masses --      1.0174
 Frc consts  --      0.0131
 IR Inten    --      0.5702

 - Thermochemistry -
 -------------------
 Temperature   298.150 Kelvin.  Pressure   1.00000 Atm.
 Atom     1 has atomic number  1 and mass   1.00783

 Molecular mass:    21.01405 amu.
 Principal axes and moments of inertia in atomic units:
                           1         2         3
     Eigenvalues --     0.00000 156.90589 156.90589
           X            1.00000  -0.00000   0.00000
           Y            0.00000   1.00000   0.00000
           Z            0.00000   0.00000   1.00000
 This molecule is a prolate symmetric top.
 Rotational symmetry number  1.
 Rotational temperature (Kelvin)      0.55201
 Rotational constant (GHZ):          11.502061
    2 imaginary frequencies ignored.
 Zero-point vibrational energy       1768.6 (Joules/Mol)
                                    0.42271 (Kcal/Mol)
 Warning -- explicit consideration of   2 degrees of freedom as
           vibrations may cause significant error
 Vibrational temperatures:    212.72   212.72
          (Kelvin)

 Zero-point correction=                           0.000674 (Hartree/Particle)
 Thermal correction to Energy=                    0.004328
 Thermal correction to Enthalpy=                  0.005272
 Thermal correction to Gibbs Free Energy=        -0.021494
 Sum of electronic and zero-point Energies=           -100.760400
 Sum of electronic and thermal Energies=              -100.756745
 Sum of electronic and thermal Enthalpies=            -100.755801
 Sum of electronic and thermal Free Energies=         -100.782567

                     E (Thermal)             CV                S
                      KCal/Mol        Cal/Mol-Kelvin    Cal/Mol-Kelvin
 Total                    2.716              8.778             56.335
 Electronic               0.000              0.000              1.377
 Translational            0.889              2.981             35.068
 Rotational               0.592              1.987             14.490
 Vibrational              1.235              3.810              5.400
 Vibration     1          0.617              1.905              2.700
 Vibration     2          0.617              1.905              2.700

 Normal termination of Gaussian 16 at Fri Aug 22 20:11:12 2025.
