 Gaussian 16, Revision C.01,
 Gaussian 16:  ES64L-G16RevC.01  3-Jul-2019

 -----------------------------------------
 # sp b3lyp/6-311g** Force nosymm scf=(qc)
 -----------------------------------------

 -------------------
 Title Card Required
 -------------------
 Symbolic Z-matrix:
 Charge =  0 Multiplicity = 2

                          Input orientation:
 ---------------------------------------------------------------------
 Center     Atomic      Atomic             Coordinates (Angstroms)
 Number     Number       Type             X           Y           Z
 ---------------------------------------------------------------------
      1          1           0        0.000000    0.000000    0.000000
      2          1           0       -3.400000    0.000000    0.000000
      3          9           0        1.750000    0.000000    0.000000
 ---------------------------------------------------------------------

 SCF Done:  E(UB3LYP) =  -100.810708812     a.u. after   13 cycles

 Alpha  occ. eigenvalues --  -24.66167  -1.12269  -0.44888  -0.37962  -0.37962
 Alpha  occ. eigenvalues --   -0.33880
 Alpha virt. eigenvalues --   -0.15120   0.21496   0.29721   0.94427   0.94674
 Alpha virt. eigenvalues --    0.94674   1.05968   1.23640   1.23640   1.23770
 Alpha virt. eigenvalues --    1.33365   1.33365   1.71595   2.13753   2.24791

  Beta  occ. eigenvalues --  -24.64447  -1.07555  -0.39766  -0.36289  -0.36289
  Beta virt. eigenvalues --   -0.18847  -0.07274   0.22032   0.37695   0.94540
  Beta virt. eigenvalues --    0.94540   0.95031   1.07805   1.24476   1.24476
  Beta virt. eigenvalues --    1.45131   1.45581   1.45581   1.67275   2.12445

 Mulliken charges and spin densities:
               1          2
     1  H    0.272678  -0.538448
     2  H    0.002600   0.996779
     3  F   -0.275279   0.541669
 Sum of Mulliken charges =   0.00000   1.00000

 Dipole moment (field-independent basis, Debye):
    X=             -2.3910    Y=              0.0000    Z=             -0.0000  Tot=              2.3910
 Quadrupole moment (field-independent basis, Debye-Ang):
   XX=            -10.1405   YY=             -7.4253   ZZ=             -7.4253
   XY=              0.0000   XZ=              0.0000   YZ=             -0.0000

  Exact polarizability:      23.220       0.000       2.108       0.000       0.000       2.108
 Approx polarizability:      36.358       0.000       2.002       0.000      -0.000       2.002

 ******    2 imaginary frequencies (negative Signs) ******

                      1                      2                      3
                      A                      A                      A
 Frequencies --  -1625.4966              -128.4269               710.6293
 Red. masses --      1.0574                 1.0541                 1.0276
 Frc consts  --      1.6461                 0.0102                 0.3057
 IR Inten    --    124.4050                 0.4975                68.7177

                      4
                      A
 Frequencies --    710.6293
 Red. masses --      1.0276
 Frc consts  --      0.3057
 IR Inten    --     68.7177

 - Thermochemistry -
 -------------------
 Temperature   298.150 Kelvin.  Pressure   1.00000 Atm.
 Atom     1 has atomic number  1 and mass   1.00783

 Molecular mass:    21.01405 amu.
 Principal axes and moments of inertia in atomic units:
                           1         2         3
     Eigenvalues --     0.00000  98.25885  98.25885
           X            1.00000  -0.00000   0.00000
           Y            0.00000   1.00000   0.00000
           Z            0.00000   0.00000   1.00000
 This molecule is a prolate symmetric top.
 Rotational symmetry number  1.
 Rotational temperature (Kelvin)      0.88149
 Rotational constant (GHZ):          18.367212
    2 imaginary frequencies ignored.
 Zero-point vibrational energy       8501.0 (Joules/Mol)
                                    2.03179 (Kcal/Mol)
 Vibrational temperatures:   1022.44  1022.44
          (Kelvin)

 Zero-point correction=                           0.003238 (Hartree/Particle)
 Thermal correction to Energy=                    0.005815
 Thermal correction to Enthalpy=                  0.006759
 Thermal correction to Gibbs Free Energy=        -0.017279
 Sum of electronic and zero-point Energies=           -100.807471
 Sum of electronic and thermal Energies=              -100.804894
 Sum of electronic and thermal Enthalpies=            -100.803949
 Sum of electronic and thermal Free Energies=         -100.827988

                     E (Thermal)             CV                S
                      KCal/Mol        Cal/Mol-Kelvin    Cal/Mol-Kelvin
 Total                    3.649              6.586             50.593
 Electronic               0.000              0.000              1.377
 Translational            0.889              2.981             35.068
 Rotational               0.592              1.987             13.560
 Vibrational              2.168              1.618              0.587

 Normal termination of Gaussian 16 at Fri Aug 22 16:41:42 2025.
