 Gaussian 16, Revision C.01,
 Gaussian 16:  ES64L-G16RevC.01  3-Jul-2019

 -----------------------------------------
 # sp b3lyp/6-311g** Force nosymm scf=(qc)
 -----------------------------------------

 -------------------
 Title Card Required
 -------------------
 Symbolic Z-matrix:
 Charge =  0 Multiplicity = 2

                          Input orientation:
 ---------------------------------------------------------------------
 Center     Atomic      Atomic             Coordinates (Angstroms)
 Number     Number       Type             X           Y           Z
 ---------------------------------------------------------------------
      1          1           0        0.000000    0.000000    0.000000
      2          1           0       -1.100000    0.000000    0.000000
      3          9           0        2.950000    0.000000    0.000000
 ---------------------------------------------------------------------

 SCF Done:  E(UB3LYP) =  -100.890312470     a.u. after  139 cycles

 Alpha  occ. eigenvalues --  -24.76712  -1.22525  -0.55713  -0.46975  -0.46862
 Alpha  occ. eigenvalues --   -0.37337
 Alpha virt. eigenvalues --   -0.01592   0.22338   0.36695   0.85752   0.90625
 Alpha virt. eigenvalues --    0.93522   1.04743   1.10936   1.10943   1.29850
 Alpha virt. eigenvalues --    1.60052   1.60059   2.17770   2.34988   2.56075

  Beta  occ. eigenvalues --  -24.73551  -1.13438  -0.43822  -0.43693  -0.37316
  Beta virt. eigenvalues --   -0.26336  -0.01568   0.22362   0.36780   0.92123
  Beta virt. eigenvalues --    0.95209   0.95267   1.08535   1.10936   1.10942
  Beta virt. eigenvalues --    1.29855   1.60050   1.60058   2.17781   2.34994

 Mulliken charges and spin densities:
               1          2
     1  H   -0.002271  -0.000543
     2  H   -0.006532  -0.000633
     3  F    0.008803   1.001176
 Sum of Mulliken charges =  -0.00000   1.00000

 Dipole moment (field-independent basis, Debye):
    X=              0.1100    Y=              0.0000    Z=             -0.0000  Tot=              0.1100
 Quadrupole moment (field-independent basis, Debye-Ang):
   XX=             -6.1338   YY=             -6.9616   ZZ=             -6.9673
   XY=              0.0000   XZ=             -0.0000   YZ=             -0.4318

  Exact polarizability:      14.538       0.000       2.310      -0.000      -0.230       2.307
 Approx polarizability:      20.095       0.000       2.411      -0.000      -0.289       2.407

                      1                      2                      3
                      A                      A                      A
 Frequencies --     45.8486              1027.2777              1527.4292
 Red. masses --      1.1085                 1.0078                 1.0103
 Frc consts  --      0.0014                 0.6266                 1.3887
 IR Inten    --      0.5316                 1.0719                 0.0007

                      4
                      A
 Frequencies --   1527.7762
 Red. masses --      1.0103
 Frc consts  --      1.3893
 IR Inten    --      0.0008

 - Thermochemistry -
 -------------------
 Temperature   298.150 Kelvin.  Pressure   1.00000 Atm.
 Atom     1 has atomic number  1 and mass   1.00783

 Molecular mass:    21.01405 amu.
 Principal axes and moments of inertia in atomic units:
                           1         2         3
     Eigenvalues --     0.00000  81.89537  81.89537
           X            1.00000  -0.00000   0.00000
           Y            0.00000   1.00000   0.00000
           Z            0.00000   0.00000   1.00000
 This molecule is a prolate symmetric top.
 Rotational symmetry number  1.
 Rotational temperature (Kelvin)      1.05762
 Rotational constant (GHZ):          22.037158
 Zero-point vibrational energy      24692.9 (Joules/Mol)
                                    5.90175 (Kcal/Mol)
 Warning -- explicit consideration of   1 degrees of freedom as
           vibrations may cause significant error
 Vibrational temperatures:     65.97  1478.02  2197.63  2198.13
          (Kelvin)

 Zero-point correction=                           0.009405 (Hartree/Particle)
 Thermal correction to Energy=                    0.012651
 Thermal correction to Enthalpy=                  0.013595
 Thermal correction to Gibbs Free Energy=        -0.012412
 Sum of electronic and zero-point Energies=           -100.880907
 Sum of electronic and thermal Energies=              -100.877661
 Sum of electronic and thermal Enthalpies=            -100.876717
 Sum of electronic and thermal Free Energies=         -100.902725

                     E (Thermal)             CV                S
                      KCal/Mol        Cal/Mol-Kelvin    Cal/Mol-Kelvin
 Total                    7.939              7.431             54.737
 Electronic               0.000              0.000              1.377
 Translational            0.889              2.981             35.068
 Rotational               0.592              1.987             13.198
 Vibrational              6.457              2.463              5.094
 Vibration     1          0.595              1.979              4.989

 Normal termination of Gaussian 16 at Fri Aug 22 19:12:28 2025.
