 Gaussian 16, Revision C.01,
 Gaussian 16:  ES64L-G16RevC.01  3-Jul-2019

 -----------------------------------------
 # sp b3lyp/6-311g** Force nosymm scf=(qc)
 -----------------------------------------

 -------------------
 Title Card Required
 -------------------
 Symbolic Z-matrix:
 Charge =  0 Multiplicity = 2

                          Input orientation:
 ---------------------------------------------------------------------
 Center     Atomic      Atomic             Coordinates (Angstroms)
 Number     Number       Type             X           Y           Z
 ---------------------------------------------------------------------
      1          1           0        0.000000    0.000000    0.000000
      2          1           0       -3.450000    0.000000    0.000000
      3          9           0        2.400000    0.000000    0.000000
 ---------------------------------------------------------------------

 SCF Done:  E(UB3LYP) =  -100.769288459     a.u. after   20 cycles

 Alpha  occ. eigenvalues --  -24.68259  -1.09409  -0.39359  -0.39359  -0.35844
 Alpha  occ. eigenvalues --   -0.32883
 Alpha virt. eigenvalues --   -0.22879   0.21093   0.28104   0.94566   0.95285
 Alpha virt. eigenvalues --    0.95285   1.08472   1.21817   1.21817   1.24522
 Alpha virt. eigenvalues --    1.24522   1.24611   1.33111   2.11518   2.15753

  Beta  occ. eigenvalues --  -24.71036  -1.17293  -0.50127  -0.42122  -0.42122
  Beta virt. eigenvalues --   -0.11265  -0.04407   0.32677   0.40367   0.89359
  Beta virt. eigenvalues --    0.93982   0.93982   1.06424   1.39560   1.39560
  Beta virt. eigenvalues --    1.46052   1.48234   1.48234   1.48543   2.35581

 Mulliken charges and spin densities:
               1          2
     1  H    0.106713   0.877581
     2  H    0.001109   0.998910
     3  F   -0.107822  -0.876491
 Sum of Mulliken charges =   0.00000   1.00000

 Dipole moment (field-independent basis, Debye):
    X=             -1.3288    Y=             -0.0000    Z=             -0.0000  Tot=              1.3288
 Quadrupole moment (field-independent basis, Debye-Ang):
   XX=             -9.5575   YY=             -7.5462   ZZ=             -7.5462
   XY=             -0.0000   XZ=             -0.0000   YZ=              0.0000

  Exact polarizability:      31.246      -0.000       2.030      -0.000       0.000       2.030
 Approx polarizability:      41.069      -0.000       1.923      -0.000      -0.000       1.923

 ******    1 imaginary frequencies (negative Signs) ******

                      1                      2                      3
                      A                      A                      A
 Frequencies --   -668.6998                89.6731               267.9285
 Red. masses --      1.0606                 1.0510                 1.0229
 Frc consts  --      0.2794                 0.0050                 0.0433
 IR Inten    --     81.6129                 0.1469                10.8092

                      4
                      A
 Frequencies --    267.9285
 Red. masses --      1.0229
 Frc consts  --      0.0433
 IR Inten    --     10.8092

 - Thermochemistry -
 -------------------
 Temperature   298.150 Kelvin.  Pressure   1.00000 Atm.
 Atom     1 has atomic number  1 and mass   1.00783

 Molecular mass:    21.01405 amu.
 Principal axes and moments of inertia in atomic units:
                           1         2         3
     Eigenvalues --     0.00000 132.14930 132.14930
           X            1.00000  -0.00000   0.00000
           Y            0.00000   1.00000   0.00000
           Z            0.00000   0.00000   1.00000
 This molecule is a prolate symmetric top.
 Rotational symmetry number  1.
 Rotational temperature (Kelvin)      0.65542
 Rotational constant (GHZ):          13.656835
    1 imaginary frequencies ignored.
 Zero-point vibrational energy       3741.5 (Joules/Mol)
                                    0.89424 (Kcal/Mol)
 Warning -- explicit consideration of   3 degrees of freedom as
           vibrations may cause significant error
 Vibrational temperatures:    129.02   385.49   385.49
          (Kelvin)

 Zero-point correction=                           0.001425 (Hartree/Particle)
 Thermal correction to Energy=                    0.005464
 Thermal correction to Enthalpy=                  0.006408
 Thermal correction to Gibbs Free Energy=        -0.020903
 Sum of electronic and zero-point Energies=           -100.767863
 Sum of electronic and thermal Energies=              -100.763825
 Sum of electronic and thermal Enthalpies=            -100.762881
 Sum of electronic and thermal Free Energies=         -100.790191

                     E (Thermal)             CV                S
                      KCal/Mol        Cal/Mol-Kelvin    Cal/Mol-Kelvin
 Total                    3.429             10.389             57.481
 Electronic               0.000              0.000              1.377
 Translational            0.889              2.981             35.068
 Rotational               0.592              1.987             14.149
 Vibrational              1.947              5.421              6.886
 Vibration     1          0.602              1.956              3.667
 Vibration     2          0.673              1.732              1.610
 Vibration     3          0.673              1.732              1.610

 Normal termination of Gaussian 16 at Fri Aug 22 17:33:30 2025.
