 Gaussian 16, Revision C.01,
 Gaussian 16:  ES64L-G16RevC.01  3-Jul-2019

 -----------------------------------------
 # sp b3lyp/6-311g** Force nosymm scf=(qc)
 -----------------------------------------

 -------------------
 Title Card Required
 -------------------
 Symbolic Z-matrix:
 Charge =  0 Multiplicity = 2

                          Input orientation:
 ---------------------------------------------------------------------
 Center     Atomic      Atomic             Coordinates (Angstroms)
 Number     Number       Type             X           Y           Z
 ---------------------------------------------------------------------
      1          1           0        0.000000    0.000000    0.000000
      2          1           0       -2.800000    0.000000    0.000000
      3          9           0        1.150000    0.000000    0.000000
 ---------------------------------------------------------------------

 SCF Done:  E(UB3LYP) =  -100.937651122     a.u. after    6 cycles

 Alpha  occ. eigenvalues --  -24.64238  -1.12935  -0.48615  -0.37722  -0.37722
 Alpha  occ. eigenvalues --   -0.34673
 Alpha virt. eigenvalues --   -0.03661   0.24278   0.29483   0.93428   0.93428
 Alpha virt. eigenvalues --    1.00240   1.22326   1.22864   1.22864   1.30642
 Alpha virt. eigenvalues --    1.35022   1.35022   1.76384   2.14077   2.30920

  Beta  occ. eigenvalues --  -24.64220  -1.12889  -0.48547  -0.37706  -0.37706
  Beta virt. eigenvalues --   -0.09649  -0.01792   0.29020   0.37357   0.93428
  Beta virt. eigenvalues --    0.93428   1.00277   1.28739   1.34988   1.34988
  Beta virt. eigenvalues --    1.45184   1.45184   1.45887   1.76638   2.30852

 Mulliken charges and spin densities:
               1          2
     1  H    0.344392   0.000705
     2  H    0.005236   0.993547
     3  F   -0.349628   0.005748
 Sum of Mulliken charges =   0.00000   1.00000

 Dipole moment (field-independent basis, Debye):
    X=             -2.2926    Y=              0.0000    Z=              0.0000  Tot=              2.2926
 Quadrupole moment (field-independent basis, Debye-Ang):
   XX=             -8.5193   YY=             -7.0877   ZZ=             -7.0877
   XY=              0.0000   XZ=              0.0000   YZ=             -0.0000

  Exact polarizability:      10.441      -0.000       2.358       0.000       0.000       2.358
 Approx polarizability:      13.377       0.000       2.320       0.000       0.000       2.320

 ******    1 imaginary frequencies (negative Signs) ******

                      1                      2                      3
                      A                      A                      A
 Frequencies --   -117.1676              1192.4555              1192.4555
 Red. masses --      1.0519                 1.0312                 1.0312
 Frc consts  --      0.0085                 0.8640                 0.8640
 IR Inten    --      1.0701               143.2960               143.2960

                      4
                      A
 Frequencies --   1449.6332
 Red. masses --      1.0597
 Frc consts  --      1.3120
 IR Inten    --     96.9881

 - Thermochemistry -
 -------------------
 Temperature   298.150 Kelvin.  Pressure   1.00000 Atm.
 Atom     1 has atomic number  1 and mass   1.00783

 Molecular mass:    21.01405 amu.
 Principal axes and moments of inertia in atomic units:
                           1         2         3
     Eigenvalues --     0.00000  56.42371  56.42371
           X            1.00000  -0.00000   0.00000
           Y            0.00000   1.00000   0.00000
           Z            0.00000   0.00000   1.00000
 This molecule is a prolate symmetric top.
 Rotational symmetry number  1.
 Rotational temperature (Kelvin)      1.53506
 Rotational constant (GHZ):          31.985509
    1 imaginary frequencies ignored.
 Zero-point vibrational energy      22935.7 (Joules/Mol)
                                    5.48176 (Kcal/Mol)
 Vibrational temperatures:   1715.68  1715.68  2085.70
          (Kelvin)

 Zero-point correction=                           0.008736 (Hartree/Particle)
 Thermal correction to Energy=                    0.011137
 Thermal correction to Enthalpy=                  0.012081
 Thermal correction to Gibbs Free Energy=        -0.011202
 Sum of electronic and zero-point Energies=           -100.928915
 Sum of electronic and thermal Energies=              -100.926514
 Sum of electronic and thermal Enthalpies=            -100.925570
 Sum of electronic and thermal Free Energies=         -100.948853

                     E (Thermal)             CV                S
                      KCal/Mol        Cal/Mol-Kelvin    Cal/Mol-Kelvin
 Total                    6.988              5.477             49.003
 Electronic               0.000              0.000              1.377
 Translational            0.889              2.981             35.068
 Rotational               0.592              1.987             12.458
 Vibrational              5.507              0.509              0.100

 Normal termination of Gaussian 16 at Fri Aug 22 16:08:17 2025.
