 Gaussian 16, Revision C.01,
 Gaussian 16:  ES64L-G16RevC.01  3-Jul-2019

 -----------------------------------------
 # sp b3lyp/6-311g** Force nosymm scf=(qc)
 -----------------------------------------

 -------------------
 Title Card Required
 -------------------
 Symbolic Z-matrix:
 Charge =  0 Multiplicity = 2

                          Input orientation:
 ---------------------------------------------------------------------
 Center     Atomic      Atomic             Coordinates (Angstroms)
 Number     Number       Type             X           Y           Z
 ---------------------------------------------------------------------
      1          1           0        0.000000    0.000000    0.000000
      2          1           0       -3.600000    0.000000    0.000000
      3          9           0        1.250000    0.000000    0.000000
 ---------------------------------------------------------------------

 SCF Done:  E(UB3LYP) =  -100.913438523     a.u. after    6 cycles

 Alpha  occ. eigenvalues --  -24.64367  -1.11646  -0.46881  -0.37287  -0.37287
 Alpha  occ. eigenvalues --   -0.33786
 Alpha virt. eigenvalues --   -0.07366   0.21771   0.28808   0.93054   0.93054
 Alpha virt. eigenvalues --    1.01435   1.23579   1.23727   1.23727   1.24218
 Alpha virt. eigenvalues --    1.34247   1.34247   1.71077   2.13647   2.26605

  Beta  occ. eigenvalues --  -24.64363  -1.11636  -0.46870  -0.37284  -0.37284
  Beta virt. eigenvalues --   -0.08373  -0.05250   0.25807   0.38603   0.93053
  Beta virt. eigenvalues --    0.93053   1.01447   1.24105   1.34236   1.34236
  Beta virt. eigenvalues --    1.47200   1.47218   1.47218   1.71104   2.26109

 Mulliken charges and spin densities:
               1          2
     1  H    0.356573  -0.000145
     2  H    0.001068   0.998835
     3  F   -0.357640   0.001310
 Sum of Mulliken charges =   0.00000   1.00000

 Dipole moment (field-independent basis, Debye):
    X=             -2.3513    Y=             -0.0000    Z=              0.0000  Tot=              2.3513
 Quadrupole moment (field-independent basis, Debye-Ang):
   XX=             -9.0461   YY=             -7.1646   ZZ=             -7.1646
   XY=             -0.0000   XZ=              0.0000   YZ=              0.0000

  Exact polarizability:      10.299       0.000       2.301      -0.000      -0.000       2.301
 Approx polarizability:      15.258      -0.000       2.251       0.000      -0.000       2.251

 ******    1 imaginary frequencies (negative Signs) ******

                      1                      2                      3
                      A                      A                      A
 Frequencies --    -56.6027               446.0618              1188.8534
 Red. masses --      1.0508                 1.0608                 1.0339
 Frc consts  --      0.0020                 0.1244                 0.8610
 IR Inten    --      0.2221                61.9875               141.6741

                      4
                      A
 Frequencies --   1188.8534
 Red. masses --      1.0339
 Frc consts  --      0.8610
 IR Inten    --    141.6741

 - Thermochemistry -
 -------------------
 Temperature   298.150 Kelvin.  Pressure   1.00000 Atm.
 Atom     1 has atomic number  1 and mass   1.00783

 Molecular mass:    21.01405 amu.
 Principal axes and moments of inertia in atomic units:
                           1         2         3
     Eigenvalues --     0.00000  83.85843  83.85843
           X            1.00000  -0.00000   0.00000
           Y            0.00000   1.00000   0.00000
           Z            0.00000   0.00000   1.00000
 This molecule is a prolate symmetric top.
 Rotational symmetry number  1.
 Rotational temperature (Kelvin)      1.03286
 Rotational constant (GHZ):          21.521286
    1 imaginary frequencies ignored.
 Zero-point vibrational energy      16889.9 (Joules/Mol)
                                    4.03678 (Kcal/Mol)
 Warning -- explicit consideration of   1 degrees of freedom as
           vibrations may cause significant error
 Vibrational temperatures:    641.78  1710.49  1710.49
          (Kelvin)

 Zero-point correction=                           0.006433 (Hartree/Particle)
 Thermal correction to Energy=                    0.009096
 Thermal correction to Enthalpy=                  0.010040
 Thermal correction to Gibbs Free Energy=        -0.013995
 Sum of electronic and zero-point Energies=           -100.907006
 Sum of electronic and thermal Energies=              -100.904343
 Sum of electronic and thermal Enthalpies=            -100.903399
 Sum of electronic and thermal Free Energies=         -100.927433

                     E (Thermal)             CV                S
                      KCal/Mol        Cal/Mol-Kelvin    Cal/Mol-Kelvin
 Total                    5.708              6.762             50.585
 Electronic               0.000              0.000              1.377
 Translational            0.889              2.981             35.068
 Rotational               0.592              1.987             13.245
 Vibrational              4.226              1.794              0.894
 Vibration     1          0.805              1.370              0.808

 Normal termination of Gaussian 16 at Fri Aug 22 16:13:40 2025.
