 Gaussian 16, Revision C.01,
 Gaussian 16:  ES64L-G16RevC.01  3-Jul-2019

 -----------------------------------------
 # sp b3lyp/6-311g** Force nosymm scf=(qc)
 -----------------------------------------

 -------------------
 Title Card Required
 -------------------
 Symbolic Z-matrix:
 Charge =  0 Multiplicity = 2

                          Input orientation:
 ---------------------------------------------------------------------
 Center     Atomic      Atomic             Coordinates (Angstroms)
 Number     Number       Type             X           Y           Z
 ---------------------------------------------------------------------
      1          1           0        0.000000    0.000000    0.000000
      2          1           0       -3.300000    0.000000    0.000000
      3          9           0        3.250000    0.000000    0.000000
 ---------------------------------------------------------------------

 SCF Done:  E(UB3LYP) =  -100.760035291     a.u. after   23 cycles

 Alpha  occ. eigenvalues --  -24.74860  -1.20862  -0.53981  -0.45324  -0.45324
 Alpha  occ. eigenvalues --   -0.32467
 Alpha virt. eigenvalues --   -0.07797   0.24393   0.36224   0.88488   0.91806
 Alpha virt. eigenvalues --    0.91806   1.02661   1.25047   1.25047   1.25356
 Alpha virt. eigenvalues --    1.44236   1.44236   1.44320   2.15218   2.40415

  Beta  occ. eigenvalues --  -24.71780  -1.12022  -0.42239  -0.42239  -0.33214
  Beta virt. eigenvalues --   -0.25206  -0.06880   0.24204   0.37553   0.93284
  Beta virt. eigenvalues --    0.93284   0.97444   1.06564   1.24179   1.24179
  Beta virt. eigenvalues --    1.24486   1.45418   1.45656   1.45656   2.15590

 Mulliken charges and spin densities:
               1          2
     1  H    0.021116  -0.972827
     2  H    0.000493   0.996558
     3  F   -0.021609   0.976269
 Sum of Mulliken charges =  -0.00000   1.00000

 Dipole moment (field-independent basis, Debye):
    X=             -0.3687    Y=              0.0000    Z=              0.0000  Tot=              0.3687
 Quadrupole moment (field-independent basis, Debye-Ang):
   XX=             -7.7867   YY=             -7.6214   ZZ=             -7.6214
   XY=             -0.0000   XZ=             -0.0000   YZ=             -0.0000

  Exact polarizability:      29.960      -0.000       2.028      -0.000      -0.000       2.028
 Approx polarizability:      26.428      -0.000       1.930      -0.000       0.000       1.930

 ******    2 imaginary frequencies (negative Signs) ******

                      1                      2                      3
                      A                      A                      A
 Frequencies --   -323.7104              -133.9106               110.7469
 Red. masses --      1.0297                 1.0832                 1.0181
 Frc consts  --      0.0636                 0.0114                 0.0074
 IR Inten    --     21.6769                 2.3008                 0.4011

                      4
                      A
 Frequencies --    110.7469
 Red. masses --      1.0181
 Frc consts  --      0.0074
 IR Inten    --      0.4011

 - Thermochemistry -
 -------------------
 Temperature   298.150 Kelvin.  Pressure   1.00000 Atm.
 Atom     1 has atomic number  1 and mass   1.00783

 Molecular mass:    21.01405 amu.
 Principal axes and moments of inertia in atomic units:
                           1         2         3
     Eigenvalues --     0.00000 175.84382 175.84382
           X            1.00000  -0.00000   0.00000
           Y            0.00000   1.00000   0.00000
           Z            0.00000   0.00000   1.00000
 This molecule is a prolate symmetric top.
 Rotational symmetry number  1.
 Rotational temperature (Kelvin)      0.49256
 Rotational constant (GHZ):          10.263319
    2 imaginary frequencies ignored.
 Zero-point vibrational energy       1324.8 (Joules/Mol)
                                    0.31664 (Kcal/Mol)
 Warning -- explicit consideration of   2 degrees of freedom as
           vibrations may cause significant error
 Vibrational temperatures:    159.34   159.34
          (Kelvin)

 Zero-point correction=                           0.000505 (Hartree/Particle)
 Thermal correction to Energy=                    0.004294
 Thermal correction to Enthalpy=                  0.005238
 Thermal correction to Gibbs Free Energy=        -0.022165
 Sum of electronic and zero-point Energies=           -100.759531
 Sum of electronic and thermal Energies=              -100.755742
 Sum of electronic and thermal Enthalpies=            -100.754798
 Sum of electronic and thermal Free Energies=         -100.782200

                     E (Thermal)             CV                S
                      KCal/Mol        Cal/Mol-Kelvin    Cal/Mol-Kelvin
 Total                    2.694              8.849             57.674
 Electronic               0.000              0.000              1.377
 Translational            0.889              2.981             35.068
 Rotational               0.592              1.987             14.717
 Vibrational              1.213              3.881              6.512
 Vibration     1          0.607              1.941              3.256
 Vibration     2          0.607              1.941              3.256

 Normal termination of Gaussian 16 at Fri Aug 22 20:36:00 2025.
