 Gaussian 16, Revision C.01,
 Gaussian 16:  ES64L-G16RevC.01  3-Jul-2019

 -----------------------------------------
 # sp b3lyp/6-311g** Force nosymm scf=(qc)
 -----------------------------------------

 -------------------
 Title Card Required
 -------------------
 Symbolic Z-matrix:
 Charge =  0 Multiplicity = 2

                          Input orientation:
 ---------------------------------------------------------------------
 Center     Atomic      Atomic             Coordinates (Angstroms)
 Number     Number       Type             X           Y           Z
 ---------------------------------------------------------------------
      1          1           0        0.000000    0.000000    0.000000
      2          1           0       -1.850000    0.000000    0.000000
      3          9           0        3.300000    0.000000    0.000000
 ---------------------------------------------------------------------

 SCF Done:  E(UB3LYP) =  -100.783092783     a.u. after   31 cycles

 Alpha  occ. eigenvalues --  -24.75340  -1.21307  -0.54463  -0.45734  -0.45734
 Alpha  occ. eigenvalues --   -0.33466
 Alpha virt. eigenvalues --   -0.11362   0.25632   0.31153   0.88345   0.91489
 Alpha virt. eigenvalues --    0.91489   1.02357   1.11186   1.24335   1.24335
 Alpha virt. eigenvalues --    1.37021   1.37021   1.58071   2.13775   2.38678

  Beta  occ. eigenvalues --  -24.72238  -1.12394  -0.42625  -0.42625  -0.33472
  Beta virt. eigenvalues --   -0.25545  -0.11112   0.25692   0.31577   0.92974
  Beta virt. eigenvalues --    0.92974   0.97380   1.06357   1.11253   1.24318
  Beta virt. eigenvalues --    1.24318   1.37335   1.37335   1.58348   2.14520

 Mulliken charges and spin densities:
               1          2
     1  H    0.003602  -0.752966
     2  H    0.010340   0.769306
     3  F   -0.013941   0.983659
 Sum of Mulliken charges =   0.00000   1.00000

 Dipole moment (field-independent basis, Debye):
    X=             -0.3261    Y=             -0.0000    Z=              0.0000  Tot=              0.3261
 Quadrupole moment (field-independent basis, Debye-Ang):
   XX=             -6.5857   YY=             -7.7435   ZZ=             -7.7435
   XY=             -0.0000   XZ=              0.0000   YZ=              0.0000

  Exact polarizability:      51.539      -0.000       2.028       0.000      -0.000       2.028
 Approx polarizability:      50.098      -0.000       1.950       0.000       0.000       1.950

 ******    2 imaginary frequencies (negative Signs) ******

                      1                      2                      3
                      A                      A                      A
 Frequencies --  -1640.5329              -166.9867               706.3545
 Red. masses --      1.0078                 1.1085                 1.0125
 Frc consts  --      1.5981                 0.0182                 0.2976
 IR Inten    --     29.2581                12.8093                 0.0001

                      4
                      A
 Frequencies --    706.3545
 Red. masses --      1.0125
 Frc consts  --      0.2976
 IR Inten    --      0.0001

 - Thermochemistry -
 -------------------
 Temperature   298.150 Kelvin.  Pressure   1.00000 Atm.
 Atom     1 has atomic number  1 and mass   1.00783

 Molecular mass:    21.01405 amu.
 Principal axes and moments of inertia in atomic units:
                           1         2         3
     Eigenvalues --     0.00000 122.32334 122.32334
           X            1.00000  -0.00000   0.00000
           Y            0.00000   1.00000   0.00000
           Z            0.00000   0.00000   1.00000
 This molecule is a prolate symmetric top.
 Rotational symmetry number  1.
 Rotational temperature (Kelvin)      0.70807
 Rotational constant (GHZ):          14.753858
    2 imaginary frequencies ignored.
 Zero-point vibrational energy       8449.9 (Joules/Mol)
                                    2.01957 (Kcal/Mol)
 Vibrational temperatures:   1016.29  1016.29
          (Kelvin)

 Zero-point correction=                           0.003218 (Hartree/Particle)
 Thermal correction to Energy=                    0.005799
 Thermal correction to Enthalpy=                  0.006743
 Thermal correction to Gibbs Free Energy=        -0.017507
 Sum of electronic and zero-point Energies=           -100.779874
 Sum of electronic and thermal Energies=              -100.777294
 Sum of electronic and thermal Enthalpies=            -100.776349
 Sum of electronic and thermal Free Energies=         -100.800599

                     E (Thermal)             CV                S
                      KCal/Mol        Cal/Mol-Kelvin    Cal/Mol-Kelvin
 Total                    3.639              6.602             51.038
 Electronic               0.000              0.000              1.377
 Translational            0.889              2.981             35.068
 Rotational               0.592              1.987             13.995
 Vibrational              2.158              1.634              0.597

 Normal termination of Gaussian 16 at Fri Aug 22 20:47:55 2025.
