 Gaussian 16, Revision C.01,
 Gaussian 16:  ES64L-G16RevC.01  3-Jul-2019

 -----------------------------------------
 # sp b3lyp/6-311g** Force nosymm scf=(qc)
 -----------------------------------------

 -------------------
 Title Card Required
 -------------------
 Symbolic Z-matrix:
 Charge =  0 Multiplicity = 2

                          Input orientation:
 ---------------------------------------------------------------------
 Center     Atomic      Atomic             Coordinates (Angstroms)
 Number     Number       Type             X           Y           Z
 ---------------------------------------------------------------------
      1          1           0        0.000000    0.000000    0.000000
      2          1           0       -2.700000    0.000000    0.000000
      3          9           0        0.650000    0.000000    0.000000
 ---------------------------------------------------------------------

 SCF Done:  E(UB3LYP) =  -100.800819985     a.u. after    6 cycles

 Alpha  occ. eigenvalues --  -24.62911  -1.31283  -0.59792  -0.42328  -0.42328
 Alpha  occ. eigenvalues --   -0.34119
 Alpha virt. eigenvalues --    0.07862   0.25623   0.55605   0.92912   0.92912
 Alpha virt. eigenvalues --    0.94684   1.20016   1.23421   1.23421   1.40664
 Alpha virt. eigenvalues --    1.46939   1.46939   1.96100   2.14586   3.09646

  Beta  occ. eigenvalues --  -24.62906  -1.31269  -0.59779  -0.42325  -0.42325
  Beta virt. eigenvalues --   -0.07315   0.09096   0.38592   0.55588   0.92908
  Beta virt. eigenvalues --    0.92908   0.94741   1.31190   1.46937   1.46937
  Beta virt. eigenvalues --    1.48136   1.48136   1.54136   1.95850   2.43839

 Mulliken charges and spin densities:
               1          2
     1  H    0.251621   0.002292
     2  H    0.003210   0.995545
     3  F   -0.254831   0.002163
 Sum of Mulliken charges =   0.00000   1.00000

 Dipole moment (field-independent basis, Debye):
    X=             -1.5479    Y=              0.0000    Z=             -0.0000  Tot=              1.5479
 Quadrupole moment (field-independent basis, Debye-Ang):
   XX=             -7.0043   YY=             -6.6048   ZZ=             -6.6048
   XY=              0.0000   XZ=             -0.0000   YZ=             -0.0000

  Exact polarizability:       4.751       0.000       2.463      -0.000      -0.000       2.463
 Approx polarizability:       4.882      -0.000       2.446       0.000      -0.000       2.446

 ******    2 imaginary frequencies (negative Signs) ******

                      1                      2                      3
                      A                      A                      A
 Frequencies --  -4570.2928             -4570.2928                64.7370
 Red. masses --      1.0395                 1.0395                 1.0532
 Frc consts  --     12.7923                12.7923                 0.0026
 IR Inten    --    215.8331               215.8331                 0.1563

                      4
                      A
 Frequencies --  10873.3792
 Red. masses --      1.0583
 Frc consts  --     73.7214
 IR Inten    --    112.2045

 - Thermochemistry -
 -------------------
 Temperature   298.150 Kelvin.  Pressure   1.00000 Atm.
 Atom     1 has atomic number  1 and mass   1.00783

 Molecular mass:    21.01405 amu.
 Principal axes and moments of inertia in atomic units:
                           1         2         3
     Eigenvalues --     0.00000  39.14874  39.14874
           X            1.00000  -0.00000   0.00000
           Y            0.00000   1.00000   0.00000
           Z            0.00000   0.00000   1.00000
 This molecule is a prolate symmetric top.
 Rotational symmetry number  1.
 Rotational temperature (Kelvin)      2.21243
 Rotational constant (GHZ):          46.099594
    2 imaginary frequencies ignored.
 Zero-point vibrational energy      65424.5 (Joules/Mol)
                                   15.63682 (Kcal/Mol)
 Warning -- explicit consideration of   1 degrees of freedom as
           vibrations may cause significant error
 Vibrational temperatures:     93.14 15644.37
          (Kelvin)

 Zero-point correction=                           0.024919 (Hartree/Particle)
 Thermal correction to Energy=                    0.028084
 Thermal correction to Enthalpy=                  0.029028
 Thermal correction to Gibbs Free Energy=         0.004091
 Sum of electronic and zero-point Energies=           -100.775901
 Sum of electronic and thermal Energies=              -100.772736
 Sum of electronic and thermal Enthalpies=            -100.771792
 Sum of electronic and thermal Free Energies=         -100.796729

                     E (Thermal)             CV                S
                      KCal/Mol        Cal/Mol-Kelvin    Cal/Mol-Kelvin
 Total                   17.623              6.939             52.484
 Electronic               0.000              0.000              1.377
 Translational            0.889              2.981             35.068
 Rotational               0.592              1.987             11.731
 Vibrational             16.142              1.971              4.307
 Vibration     1          0.597              1.971              4.307

 Normal termination of Gaussian 16 at Fri Aug 22 15:44:32 2025.
