 Gaussian 16, Revision C.01,
 Gaussian 16:  ES64L-G16RevC.01  3-Jul-2019

 -----------------------------------------
 # sp b3lyp/6-311g** Force nosymm scf=(qc)
 -----------------------------------------

 -------------------
 Title Card Required
 -------------------
 Symbolic Z-matrix:
 Charge =  0 Multiplicity = 2

                          Input orientation:
 ---------------------------------------------------------------------
 Center     Atomic      Atomic             Coordinates (Angstroms)
 Number     Number       Type             X           Y           Z
 ---------------------------------------------------------------------
      1          1           0        0.000000    0.000000    0.000000
      2          1           0       -2.200000    0.000000    0.000000
      3          9           0        3.800000    0.000000    0.000000
 ---------------------------------------------------------------------

 SCF Done:  E(UB3LYP) =  -100.767628183     a.u. after   49 cycles

 Alpha  occ. eigenvalues --  -24.75838  -1.21769  -0.54963  -0.46151  -0.46151
 Alpha  occ. eigenvalues --   -0.32767
 Alpha virt. eigenvalues --   -0.10269   0.25981   0.33555   0.86826   0.91188
 Alpha virt. eigenvalues --    0.91188   1.01205   1.23584   1.25077   1.25077
 Alpha virt. eigenvalues --    1.39543   1.39543   1.45584   2.14185   2.35413

  Beta  occ. eigenvalues --  -24.72698  -1.12741  -0.43003  -0.43003  -0.32871
  Beta virt. eigenvalues --   -0.25737  -0.10070   0.25828   0.33866   0.92685
  Beta virt. eigenvalues --    0.92685   0.96153   1.05316   1.23496   1.24959
  Beta virt. eigenvalues --    1.24959   1.39823   1.39823   1.45808   2.14435

 Mulliken charges and spin densities:
               1          2
     1  H    0.001412  -0.920081
     2  H    0.002377   0.924479
     3  F   -0.003790   0.995602
 Sum of Mulliken charges =   0.00000   1.00000

 Dipole moment (field-independent basis, Debye):
    X=             -0.0986    Y=             -0.0000    Z=             -0.0000  Tot=              0.0986
 Quadrupole moment (field-independent basis, Debye-Ang):
   XX=             -6.5766   YY=             -7.7001   ZZ=             -7.7001
   XY=             -0.0000   XZ=             -0.0000   YZ=             -0.0000

  Exact polarizability:      29.670      -0.000       2.013      -0.000      -0.000       2.013
 Approx polarizability:      24.236      -0.000       1.932      -0.000       0.000       1.932

 ******    2 imaginary frequencies (negative Signs) ******

                      1                      2                      3
                      A                      A                      A
 Frequencies --  -1020.4907               -92.7539               396.4702
 Red. masses --      1.0078                 1.1085                 1.0127
 Frc consts  --      0.6184                 0.0056                 0.0938
 IR Inten    --      1.7321                 1.7634                 0.0002

                      4
                      A
 Frequencies --    396.4702
 Red. masses --      1.0127
 Frc consts  --      0.0938
 IR Inten    --      0.0002

 - Thermochemistry -
 -------------------
 Temperature   298.150 Kelvin.  Pressure   1.00000 Atm.
 Atom     1 has atomic number  1 and mass   1.00783

 Molecular mass:    21.01405 amu.
 Principal axes and moments of inertia in atomic units:
                           1         2         3
     Eigenvalues --     0.00000 164.95682 164.95682
           X            1.00000  -0.00000   0.00000
           Y            0.00000   1.00000   0.00000
           Z            0.00000   0.00000   1.00000
 This molecule is a prolate symmetric top.
 Rotational symmetry number  1.
 Rotational temperature (Kelvin)      0.52507
 Rotational constant (GHZ):          10.940688
    2 imaginary frequencies ignored.
 Zero-point vibrational energy       4742.8 (Joules/Mol)
                                    1.13357 (Kcal/Mol)
 Warning -- explicit consideration of   2 degrees of freedom as
           vibrations may cause significant error
 Vibrational temperatures:    570.43   570.43
          (Kelvin)

 Zero-point correction=                           0.001806 (Hartree/Particle)
 Thermal correction to Energy=                    0.004793
 Thermal correction to Enthalpy=                  0.005737
 Thermal correction to Gibbs Free Energy=        -0.019439
 Sum of electronic and zero-point Energies=           -100.765822
 Sum of electronic and thermal Energies=              -100.762836
 Sum of electronic and thermal Enthalpies=            -100.761891
 Sum of electronic and thermal Free Energies=         -100.787067

                     E (Thermal)             CV                S
                      KCal/Mol        Cal/Mol-Kelvin    Cal/Mol-Kelvin
 Total                    3.007              7.923             52.987
 Electronic               0.000              0.000              1.377
 Translational            0.889              2.981             35.068
 Rotational               0.592              1.987             14.590
 Vibrational              1.526              2.955              1.951
 Vibration     1          0.763              1.478              0.976
 Vibration     2          0.763              1.478              0.976

 Normal termination of Gaussian 16 at Sat Aug 23 00:49:44 2025.
