 Gaussian 16, Revision C.01,
 Gaussian 16:  ES64L-G16RevC.01  3-Jul-2019

 -----------------------------------------
 # sp b3lyp/6-311g** Force nosymm scf=(qc)
 -----------------------------------------

 -------------------
 Title Card Required
 -------------------
 Symbolic Z-matrix:
 Charge =  0 Multiplicity = 2

                          Input orientation:
 ---------------------------------------------------------------------
 Center     Atomic      Atomic             Coordinates (Angstroms)
 Number     Number       Type             X           Y           Z
 ---------------------------------------------------------------------
      1          1           0        0.000000    0.000000    0.000000
      2          1           0       -0.700000    0.000000    0.000000
      3          9           0        1.450000    0.000000    0.000000
 ---------------------------------------------------------------------

 SCF Done:  E(UB3LYP) =  -100.934389984     a.u. after    7 cycles

 Alpha  occ. eigenvalues --  -24.70999  -1.18308  -0.57277  -0.42728  -0.42711
 Alpha  occ. eigenvalues --   -0.42711
 Alpha virt. eigenvalues --    0.10175   0.19640   0.45905   0.88412   0.88412
 Alpha virt. eigenvalues --    0.97105   1.09172   1.09172   1.34347   1.66313
 Alpha virt. eigenvalues --    1.84179   1.84179   1.92601   2.43518   3.23672

  Beta  occ. eigenvalues --  -24.68376  -1.11155  -0.49089  -0.40173  -0.40173
  Beta virt. eigenvalues --   -0.23001   0.11417   0.20521   0.48454   0.89618
  Beta virt. eigenvalues --    0.89618   1.03082   1.11522   1.11522   1.38196
  Beta virt. eigenvalues --    1.69392   1.85586   1.85586   1.93540   2.46614

 Mulliken charges and spin densities:
               1          2
     1  H    0.147012  -0.037546
     2  H    0.007508   0.251298
     3  F   -0.154520   0.786249
 Sum of Mulliken charges =   0.00000   1.00000

 Dipole moment (field-independent basis, Debye):
    X=             -1.1419    Y=              0.0000    Z=              0.0000  Tot=              1.1419
 Quadrupole moment (field-independent basis, Debye-Ang):
   XX=             -6.8779   YY=             -6.7096   ZZ=             -6.7096
   XY=              0.0000   XZ=              0.0000   YZ=              0.0000

  Exact polarizability:      18.327       0.000       2.313      -0.000       0.000       2.313
 Approx polarizability:      23.118       0.000       2.356       0.000      -0.000       2.356

 ******    3 imaginary frequencies (negative Signs) ******

                      1                      2                      3
                      A                      A                      A
 Frequencies --  -1570.0394             -1570.0394               -56.7985
 Red. masses --      1.0115                 1.0115                 1.1082
 Frc consts  --      1.4691                 1.4691                 0.0021
 IR Inten    --      0.9612                 0.9612                83.4495

                      4
                      A
 Frequencies --   4764.0149
 Red. masses --      1.0081
 Frc consts  --     13.4806
 IR Inten    --    640.7770

 - Thermochemistry -
 -------------------
 Temperature   298.150 Kelvin.  Pressure   1.00000 Atm.
 Atom     1 has atomic number  1 and mass   1.00783

 Molecular mass:    21.01405 amu.
 Principal axes and moments of inertia in atomic units:
                           1         2         3
     Eigenvalues --     0.00000  21.96635  21.96635
           X            1.00000  -0.00000   0.00000
           Y            0.00000   1.00000   0.00000
           Z            0.00000   0.00000   1.00000
 This molecule is a prolate symmetric top.
 Rotational symmetry number  1.
 Rotational temperature (Kelvin)      3.94303
 Rotational constant (GHZ):          82.159369
    3 imaginary frequencies ignored.
 Zero-point vibrational energy      28495.1 (Joules/Mol)
                                    6.81050 (Kcal/Mol)
 Vibrational temperatures:   6854.35
          (Kelvin)

 Zero-point correction=                           0.010853 (Hartree/Particle)
 Thermal correction to Energy=                    0.013214
 Thermal correction to Enthalpy=                  0.014158
 Thermal correction to Gibbs Free Energy=        -0.008187
 Sum of electronic and zero-point Energies=           -100.923537
 Sum of electronic and thermal Energies=              -100.921176
 Sum of electronic and thermal Enthalpies=            -100.920232
 Sum of electronic and thermal Free Energies=         -100.942577

                     E (Thermal)             CV                S
                      KCal/Mol        Cal/Mol-Kelvin    Cal/Mol-Kelvin
 Total                    8.292              4.968             47.029
 Electronic               0.000              0.000              1.377
 Translational            0.889              2.981             35.068
 Rotational               0.592              1.987             10.583
 Vibrational              6.811              0.000              0.000

 Normal termination of Gaussian 16 at Fri Aug 22 16:21:42 2025.
