 Gaussian 16, Revision C.01,
 Gaussian 16:  ES64L-G16RevC.01  3-Jul-2019

 -----------------------------------------
 # sp b3lyp/6-311g** Force nosymm scf=(qc)
 -----------------------------------------

 -------------------
 Title Card Required
 -------------------
 Symbolic Z-matrix:
 Charge =  0 Multiplicity = 2

                          Input orientation:
 ---------------------------------------------------------------------
 Center     Atomic      Atomic             Coordinates (Angstroms)
 Number     Number       Type             X           Y           Z
 ---------------------------------------------------------------------
      1          1           0        0.000000    0.000000    0.000000
      2          1           0       -3.250000    0.000000    0.000000
      3          9           0        2.250000    0.000000    0.000000
 ---------------------------------------------------------------------

 SCF Done:  E(UB3LYP) =  -100.773988055     a.u. after   17 cycles

 Alpha  occ. eigenvalues --  -24.67314  -1.08761  -0.38593  -0.38593  -0.36599
 Alpha  occ. eigenvalues --   -0.33119
 Alpha virt. eigenvalues --   -0.22137   0.21024   0.28024   0.92334   0.95612
 Alpha virt. eigenvalues --    0.95612   1.08390   1.21542   1.21542   1.24243
 Alpha virt. eigenvalues --    1.24243   1.24463   1.39634   2.12008   2.14990

  Beta  occ. eigenvalues --  -24.69974  -1.16280  -0.49040  -0.41234  -0.41234
  Beta virt. eigenvalues --   -0.12375  -0.04635   0.31933   0.40013   0.88832
  Beta virt. eigenvalues --    0.94461   0.94461   1.06384   1.38090   1.38090
  Beta virt. eigenvalues --    1.47786   1.47786   1.47797   1.50484   2.33627

 Mulliken charges and spin densities:
               1          2
     1  H    0.134288   0.840568
     2  H    0.002165   0.997880
     3  F   -0.136453  -0.838448
 Sum of Mulliken charges =   0.00000   1.00000

 Dipole moment (field-independent basis, Debye):
    X=             -1.5766    Y=              0.0000    Z=             -0.0000  Tot=              1.5766
 Quadrupole moment (field-independent basis, Debye-Ang):
   XX=             -9.7862   YY=             -7.5232   ZZ=             -7.5232
   XY=              0.0000   XZ=             -0.0000   YZ=             -0.0000

  Exact polarizability:      31.170       0.000       2.037      -0.000      -0.000       2.037
 Approx polarizability:      42.262       0.000       1.927      -0.000       0.000       1.927

 ******    1 imaginary frequencies (negative Signs) ******

                      1                      2                      3
                      A                      A                      A
 Frequencies --   -795.3851               105.2454               329.1009
 Red. masses --      1.0608                 1.0508                 1.0230
 Frc consts  --      0.3954                 0.0069                 0.0653
 IR Inten    --     87.2986                 0.5875                16.7998

                      4
                      A
 Frequencies --    329.1009
 Red. masses --      1.0230
 Frc consts  --      0.0653
 IR Inten    --     16.7998

 - Thermochemistry -
 -------------------
 Temperature   298.150 Kelvin.  Pressure   1.00000 Atm.
 Atom     1 has atomic number  1 and mass   1.00783

 Molecular mass:    21.01405 amu.
 Principal axes and moments of inertia in atomic units:
                           1         2         3
     Eigenvalues --     0.00000 116.72279 116.72279
           X            1.00000  -0.00000   0.00000
           Y            0.00000   1.00000   0.00000
           Z            0.00000   0.00000   1.00000
 This molecule is a prolate symmetric top.
 Rotational symmetry number  1.
 Rotational temperature (Kelvin)      0.74205
 Rotational constant (GHZ):          15.461773
    1 imaginary frequencies ignored.
 Zero-point vibrational energy       4566.4 (Joules/Mol)
                                    1.09140 (Kcal/Mol)
 Warning -- explicit consideration of   3 degrees of freedom as
           vibrations may cause significant error
 Vibrational temperatures:    151.42   473.50   473.50
          (Kelvin)

 Zero-point correction=                           0.001739 (Hartree/Particle)
 Thermal correction to Energy=                    0.005594
 Thermal correction to Enthalpy=                  0.006539
 Thermal correction to Gibbs Free Energy=        -0.020179
 Sum of electronic and zero-point Energies=           -100.772249
 Sum of electronic and thermal Energies=              -100.768394
 Sum of electronic and thermal Enthalpies=            -100.767449
 Sum of electronic and thermal Free Energies=         -100.794167

                     E (Thermal)             CV                S
                      KCal/Mol        Cal/Mol-Kelvin    Cal/Mol-Kelvin
 Total                    3.511             10.148             56.232
 Electronic               0.000              0.000              1.377
 Translational            0.889              2.981             35.068
 Rotational               0.592              1.987             13.902
 Vibrational              2.029              5.180              5.884
 Vibration     1          0.605              1.945              3.355
 Vibration     2          0.712              1.617              1.264
 Vibration     3          0.712              1.617              1.264

 Normal termination of Gaussian 16 at Fri Aug 22 17:17:35 2025.
