 Gaussian 16, Revision C.01,
 Gaussian 16:  ES64L-G16RevC.01  3-Jul-2019

 -----------------------------------------
 # sp b3lyp/6-311g** Force nosymm scf=(qc)
 -----------------------------------------

 -------------------
 Title Card Required
 -------------------
 Symbolic Z-matrix:
 Charge =  0 Multiplicity = 2

                          Input orientation:
 ---------------------------------------------------------------------
 Center     Atomic      Atomic             Coordinates (Angstroms)
 Number     Number       Type             X           Y           Z
 ---------------------------------------------------------------------
      1          1           0        0.000000    0.000000    0.000000
      2          1           0       -2.200000    0.000000    0.000000
      3          9           0        3.250000    0.000000    0.000000
 ---------------------------------------------------------------------

 SCF Done:  E(UB3LYP) =  -100.768576854     a.u. after   24 cycles

 Alpha  occ. eigenvalues --  -24.75006  -1.20995  -0.54126  -0.45447  -0.45447
 Alpha  occ. eigenvalues --   -0.33122
 Alpha virt. eigenvalues --   -0.10856   0.25730   0.32923   0.88554   0.91712
 Alpha virt. eigenvalues --    0.91712   1.02622   1.23333   1.24719   1.24719
 Alpha virt. eigenvalues --    1.38715   1.38715   1.44884   2.13802   2.35597

  Beta  occ. eigenvalues --  -24.71920  -1.12135  -0.42355  -0.42355  -0.33382
  Beta virt. eigenvalues --   -0.25316  -0.10274   0.25732   0.33687   0.93192
  Beta virt. eigenvalues --    0.93192   0.97557   1.06606   1.23015   1.24379
  Beta virt. eigenvalues --    1.24379   1.39615   1.39615   1.45666   2.14770

 Mulliken charges and spin densities:
               1          2
     1  H    0.012210  -0.904109
     2  H    0.007021   0.925836
     3  F   -0.019231   0.978273
 Sum of Mulliken charges =   0.00000   1.00000

 Dipole moment (field-independent basis, Debye):
    X=             -0.3942    Y=              0.0000    Z=             -0.0000  Tot=              0.3942
 Quadrupole moment (field-independent basis, Debye-Ang):
   XX=             -7.2047   YY=             -7.6932   ZZ=             -7.6932
   XY=              0.0000   XZ=             -0.0000   YZ=             -0.0000

  Exact polarizability:      47.989       0.000       2.012      -0.000      -0.000       2.012
 Approx polarizability:      38.973       0.000       1.927      -0.000       0.000       1.927

 ******    2 imaginary frequencies (negative Signs) ******

                      1                      2                      3
                      A                      A                      A
 Frequencies --  -1032.0909              -185.9053               397.6400
 Red. masses --      1.0080                 1.1083                 1.0139
 Frc consts  --      0.6326                 0.0226                 0.0945
 IR Inten    --     15.2579                15.1006                 0.0758

                      4
                      A
 Frequencies --    397.6400
 Red. masses --      1.0139
 Frc consts  --      0.0945
 IR Inten    --      0.0758

 - Thermochemistry -
 -------------------
 Temperature   298.150 Kelvin.  Pressure   1.00000 Atm.
 Atom     1 has atomic number  1 and mass   1.00783

 Molecular mass:    21.01405 amu.
 Principal axes and moments of inertia in atomic units:
                           1         2         3
     Eigenvalues --     0.00000 131.84946 131.84946
           X            1.00000  -0.00000   0.00000
           Y            0.00000   1.00000   0.00000
           Z            0.00000   0.00000   1.00000
 This molecule is a prolate symmetric top.
 Rotational symmetry number  1.
 Rotational temperature (Kelvin)      0.65692
 Rotational constant (GHZ):          13.687892
    2 imaginary frequencies ignored.
 Zero-point vibrational energy       4756.8 (Joules/Mol)
                                    1.13691 (Kcal/Mol)
 Warning -- explicit consideration of   2 degrees of freedom as
           vibrations may cause significant error
 Vibrational temperatures:    572.12   572.12
          (Kelvin)

 Zero-point correction=                           0.001812 (Hartree/Particle)
 Thermal correction to Energy=                    0.004796
 Thermal correction to Enthalpy=                  0.005740
 Thermal correction to Gibbs Free Energy=        -0.019220
 Sum of electronic and zero-point Energies=           -100.766765
 Sum of electronic and thermal Energies=              -100.763781
 Sum of electronic and thermal Enthalpies=            -100.762837
 Sum of electronic and thermal Free Energies=         -100.787797

                     E (Thermal)             CV                S
                      KCal/Mol        Cal/Mol-Kelvin    Cal/Mol-Kelvin
 Total                    3.009              7.918             52.533
 Electronic               0.000              0.000              1.377
 Translational            0.889              2.981             35.068
 Rotational               0.592              1.987             14.145
 Vibrational              1.528              2.950              1.943
 Vibration     1          0.764              1.475              0.971
 Vibration     2          0.764              1.475              0.971

 Normal termination of Gaussian 16 at Fri Aug 22 20:34:39 2025.
