 Gaussian 16, Revision C.01,
 Gaussian 16:  ES64L-G16RevC.01  3-Jul-2019

 -----------------------------------------
 # sp b3lyp/6-311g** Force nosymm scf=(qc)
 -----------------------------------------

 -------------------
 Title Card Required
 -------------------
 Symbolic Z-matrix:
 Charge =  0 Multiplicity = 2

                          Input orientation:
 ---------------------------------------------------------------------
 Center     Atomic      Atomic             Coordinates (Angstroms)
 Number     Number       Type             X           Y           Z
 ---------------------------------------------------------------------
      1          1           0        0.000000    0.000000    0.000000
      2          1           0       -0.700000    0.000000    0.000000
      3          9           0        3.250000    0.000000    0.000000
 ---------------------------------------------------------------------

 SCF Done:  E(UB3LYP) =  -100.932805612     a.u. after  101 cycles

 Alpha  occ. eigenvalues --  -24.76471  -1.22300  -0.55497  -0.46730  -0.46648
 Alpha  occ. eigenvalues --   -0.44127
 Alpha virt. eigenvalues --    0.06849   0.19547   0.48286   0.85941   0.90815
 Alpha virt. eigenvalues --    0.93606   1.03658   1.08995   1.09000   1.57820
 Alpha virt. eigenvalues --    1.85898   1.85904   1.91006   2.38193   3.56993

  Beta  occ. eigenvalues --  -24.73311  -1.13216  -0.44285  -0.43480  -0.43401
  Beta virt. eigenvalues --   -0.26127   0.06881   0.19567   0.48375   0.92314
  Beta virt. eigenvalues --    0.95276   0.95402   1.07498   1.08995   1.09000
  Beta virt. eigenvalues --    1.57833   1.85898   1.85904   1.91039   2.38197

 Mulliken charges and spin densities:
               1          2
     1  H   -0.004146  -0.000864
     2  H   -0.002566   0.000034
     3  F    0.006712   1.000830
 Sum of Mulliken charges =   0.00000   1.00000

 Dipole moment (field-independent basis, Debye):
    X=              0.0696    Y=              0.0000    Z=             -0.0000  Tot=              0.0696
 Quadrupole moment (field-independent basis, Debye-Ang):
   XX=             -6.1087   YY=             -6.1966   ZZ=             -6.7139
   XY=              0.0000   XZ=             -0.0000   YZ=             -0.3459

  Exact polarizability:       7.835       0.000       2.301      -0.000      -0.185       2.024
 Approx polarizability:       8.780       0.000       2.474      -0.000      -0.232       2.127

 ******    2 imaginary frequencies (negative Signs) ******

                      1                      2                      3
                      A                      A                      A
 Frequencies --  -1170.8422             -1169.7850                44.6356
 Red. masses --      1.0088                 1.0088                 1.1085
 Frc consts  --      0.8148                 0.8133                 0.0013
 IR Inten    --      0.0080                 0.0069                 0.1767

                      4
                      A
 Frequencies --   5087.8427
 Red. masses --      1.0078
 Frc consts  --     15.3710
 IR Inten    --      0.1347

 - Thermochemistry -
 -------------------
 Temperature   298.150 Kelvin.  Pressure   1.00000 Atm.
 Atom     1 has atomic number  1 and mass   1.00783

 Molecular mass:    21.01405 amu.
 Principal axes and moments of inertia in atomic units:
                           1         2         3
     Eigenvalues --     0.00000  85.22012  85.22012
           X            1.00000  -0.00000   0.00000
           Y            0.00000   1.00000   0.00000
           Z            0.00000   0.00000   1.00000
 This molecule is a prolate symmetric top.
 Rotational symmetry number  1.
 Rotational temperature (Kelvin)      1.01636
 Rotational constant (GHZ):          21.177408
    2 imaginary frequencies ignored.
 Zero-point vibrational energy      30699.0 (Joules/Mol)
                                    7.33725 (Kcal/Mol)
 Warning -- explicit consideration of   1 degrees of freedom as
           vibrations may cause significant error
 Vibrational temperatures:     64.22  7320.27
          (Kelvin)

 Zero-point correction=                           0.011693 (Hartree/Particle)
 Thermal correction to Energy=                    0.014899
 Thermal correction to Enthalpy=                  0.015843
 Thermal correction to Gibbs Free Energy=        -0.010177
 Sum of electronic and zero-point Energies=           -100.921113
 Sum of electronic and thermal Energies=              -100.917906
 Sum of electronic and thermal Enthalpies=            -100.916962
 Sum of electronic and thermal Free Energies=         -100.942983

                     E (Thermal)             CV                S
                      KCal/Mol        Cal/Mol-Kelvin    Cal/Mol-Kelvin
 Total                    9.349              6.948             54.765
 Electronic               0.000              0.000              1.377
 Translational            0.889              2.981             35.068
 Rotational               0.592              1.987             13.277
 Vibrational              7.868              1.980              5.042
 Vibration     1          0.595              1.980              5.042

 Normal termination of Gaussian 16 at Fri Aug 22 20:26:47 2025.
