 Gaussian 16, Revision C.01,
 Gaussian 16:  ES64L-G16RevC.01  3-Jul-2019

 -----------------------------------------
 # sp b3lyp/6-311g** Force nosymm scf=(qc)
 -----------------------------------------

 -------------------
 Title Card Required
 -------------------
 Symbolic Z-matrix:
 Charge =  0 Multiplicity = 2

                          Input orientation:
 ---------------------------------------------------------------------
 Center     Atomic      Atomic             Coordinates (Angstroms)
 Number     Number       Type             X           Y           Z
 ---------------------------------------------------------------------
      1          1           0        0.000000    0.000000    0.000000
      2          1           0       -3.950000    0.000000    0.000000
      3          9           0        1.400000    0.000000    0.000000
 ---------------------------------------------------------------------

 SCF Done:  E(UB3LYP) =  -100.877269805     a.u. after    7 cycles

 Alpha  occ. eigenvalues --  -24.64386  -1.10288  -0.44566  -0.36723  -0.36723
 Alpha  occ. eigenvalues --   -0.33585
 Alpha virt. eigenvalues --   -0.11924   0.20921   0.27275   0.93098   0.93098
 Alpha virt. eigenvalues --    1.03156   1.15169   1.23884   1.23922   1.23922
 Alpha virt. eigenvalues --    1.32587   1.32587   1.71311   2.13002   2.21320

  Beta  occ. eigenvalues --  -24.64382  -1.10277  -0.44556  -0.36719  -0.36719
  Beta virt. eigenvalues --   -0.12068  -0.05916   0.23795   0.38403   0.93096
  Beta virt. eigenvalues --    0.93096   1.03166   1.15178   1.32571   1.32571
  Beta virt. eigenvalues --    1.46778   1.47066   1.47066   1.71326   2.20359

 Mulliken charges and spin densities:
               1          2
     1  H    0.356829  -0.000838
     2  H    0.000544   0.999426
     3  F   -0.357373   0.001412
 Sum of Mulliken charges =   0.00000   1.00000

 Dipole moment (field-independent basis, Debye):
    X=             -2.4993    Y=             -0.0000    Z=              0.0000  Tot=              2.4993
 Quadrupole moment (field-independent basis, Debye-Ang):
   XX=             -9.6103   YY=             -7.2635   ZZ=             -7.2635
   XY=             -0.0000   XZ=              0.0000   YZ=             -0.0000

  Exact polarizability:      12.640      -0.000       2.232      -0.000      -0.000       2.232
 Approx polarizability:      21.960      -0.000       2.165      -0.000      -0.000       2.165

 ******    2 imaginary frequencies (negative Signs) ******

                      1                      2                      3
                      A                      A                      A
 Frequencies --  -1011.8526               -38.7065              1098.8312
 Red. masses --      1.0581                 1.0535                 1.0336
 Frc consts  --      0.6383                 0.0009                 0.7353
 IR Inten    --     45.3401                 0.0263               128.9978

                      4
                      A
 Frequencies --   1098.8312
 Red. masses --      1.0336
 Frc consts  --      0.7353
 IR Inten    --    128.9978

 - Thermochemistry -
 -------------------
 Temperature   298.150 Kelvin.  Pressure   1.00000 Atm.
 Atom     1 has atomic number  1 and mass   1.00783

 Molecular mass:    21.01405 amu.
 Principal axes and moments of inertia in atomic units:
                           1         2         3
     Eigenvalues --     0.00000 102.20228 102.20228
           X            1.00000  -0.00000   0.00000
           Y            0.00000   1.00000   0.00000
           Z            0.00000   0.00000   1.00000
 This molecule is a prolate symmetric top.
 Rotational symmetry number  1.
 Rotational temperature (Kelvin)      0.84748
 Rotational constant (GHZ):          17.658523
    2 imaginary frequencies ignored.
 Zero-point vibrational energy      13144.9 (Joules/Mol)
                                    3.14172 (Kcal/Mol)
 Vibrational temperatures:   1580.97  1580.97
          (Kelvin)

 Zero-point correction=                           0.005007 (Hartree/Particle)
 Thermal correction to Energy=                    0.007417
 Thermal correction to Enthalpy=                  0.008361
 Thermal correction to Gibbs Free Energy=        -0.015495
 Sum of electronic and zero-point Energies=           -100.872263
 Sum of electronic and thermal Energies=              -100.869853
 Sum of electronic and thermal Enthalpies=            -100.868908
 Sum of electronic and thermal Free Energies=         -100.892764

                     E (Thermal)             CV                S
                      KCal/Mol        Cal/Mol-Kelvin    Cal/Mol-Kelvin
 Total                    4.654              5.530             50.209
 Electronic               0.000              0.000              1.377
 Translational            0.889              2.981             35.068
 Rotational               0.592              1.987             13.638
 Vibrational              3.173              0.562              0.125

 Normal termination of Gaussian 16 at Fri Aug 22 16:21:29 2025.
