 Gaussian 16, Revision C.01,
 Gaussian 16:  ES64L-G16RevC.01  3-Jul-2019

 -----------------------------------------
 # sp b3lyp/6-311g** Force nosymm scf=(qc)
 -----------------------------------------

 -------------------
 Title Card Required
 -------------------
 Symbolic Z-matrix:
 Charge =  0 Multiplicity = 2

                          Input orientation:
 ---------------------------------------------------------------------
 Center     Atomic      Atomic             Coordinates (Angstroms)
 Number     Number       Type             X           Y           Z
 ---------------------------------------------------------------------
      1          1           0        0.000000    0.000000    0.000000
      2          1           0       -2.900000    0.000000    0.000000
      3          9           0        1.300000    0.000000    0.000000
 ---------------------------------------------------------------------

 SCF Done:  E(UB3LYP) =  -100.901555921     a.u. after    7 cycles

 Alpha  occ. eigenvalues --  -24.64281  -1.11051  -0.46027  -0.36993  -0.36993
 Alpha  occ. eigenvalues --   -0.34658
 Alpha virt. eigenvalues --   -0.08647   0.22759   0.27921   0.93082   0.93082
 Alpha virt. eigenvalues --    1.02106   1.21402   1.22869   1.22869   1.24439
 Alpha virt. eigenvalues --    1.33904   1.33904   1.71332   2.13893   2.25271

  Beta  occ. eigenvalues --  -24.64254  -1.10982  -0.45936  -0.36969  -0.36969
  Beta virt. eigenvalues --   -0.11091  -0.05489   0.26058   0.37313   0.93077
  Beta virt. eigenvalues --    0.93077   1.02176   1.22396   1.33830   1.33830
  Beta virt. eigenvalues --    1.44832   1.45057   1.45057   1.71529   2.25165

 Mulliken charges and spin densities:
               1          2
     1  H    0.354625  -0.002093
     2  H    0.005564   0.993612
     3  F   -0.360189   0.008481
 Sum of Mulliken charges =   0.00000   1.00000

 Dipole moment (field-independent basis, Debye):
    X=             -2.4712    Y=             -0.0000    Z=              0.0000  Tot=              2.4712
 Quadrupole moment (field-independent basis, Debye-Ang):
   XX=             -9.0145   YY=             -7.1999   ZZ=             -7.1999
   XY=             -0.0000   XZ=              0.0000   YZ=             -0.0000

  Exact polarizability:      13.165      -0.000       2.288       0.000       0.000       2.288
 Approx polarizability:      19.100      -0.000       2.234       0.000      -0.000       2.234

 ******    2 imaginary frequencies (negative Signs) ******

                      1                      2                      3
                      A                      A                      A
 Frequencies --   -649.3072              -119.7094              1148.1054
 Red. masses --      1.0502                 1.0614                 1.0298
 Frc consts  --      0.2609                 0.0090                 0.7998
 IR Inten    --     84.1486                 0.0929               129.0278

                      4
                      A
 Frequencies --   1148.1054
 Red. masses --      1.0298
 Frc consts  --      0.7998
 IR Inten    --    129.0278

 - Thermochemistry -
 -------------------
 Temperature   298.150 Kelvin.  Pressure   1.00000 Atm.
 Atom     1 has atomic number  1 and mass   1.00783

 Molecular mass:    21.01405 amu.
 Principal axes and moments of inertia in atomic units:
                           1         2         3
     Eigenvalues --     0.00000  64.34748  64.34748
           X            1.00000  -0.00000   0.00000
           Y            0.00000   1.00000   0.00000
           Z            0.00000   0.00000   1.00000
 This molecule is a prolate symmetric top.
 Rotational symmetry number  1.
 Rotational temperature (Kelvin)      1.34603
 Rotational constant (GHZ):          28.046806
    2 imaginary frequencies ignored.
 Zero-point vibrational energy      13734.4 (Joules/Mol)
                                    3.28260 (Kcal/Mol)
 Vibrational temperatures:   1651.87  1651.87
          (Kelvin)

 Zero-point correction=                           0.005231 (Hartree/Particle)
 Thermal correction to Energy=                    0.007633
 Thermal correction to Enthalpy=                  0.008577
 Thermal correction to Gibbs Free Energy=        -0.014831
 Sum of electronic and zero-point Energies=           -100.896325
 Sum of electronic and thermal Energies=              -100.893923
 Sum of electronic and thermal Enthalpies=            -100.892979
 Sum of electronic and thermal Free Energies=         -100.916387

                     E (Thermal)             CV                S
                      KCal/Mol        Cal/Mol-Kelvin    Cal/Mol-Kelvin
 Total                    4.790              5.451             49.267
 Electronic               0.000              0.000              1.377
 Translational            0.889              2.981             35.068
 Rotational               0.592              1.987             12.719
 Vibrational              3.308              0.483              0.102

 Normal termination of Gaussian 16 at Fri Aug 22 16:15:40 2025.
