 Gaussian 16, Revision C.01,
 Gaussian 16:  ES64L-G16RevC.01  3-Jul-2019

 -----------------------------------------
 # sp b3lyp/6-311g** Force nosymm scf=(qc)
 -----------------------------------------

 -------------------
 Title Card Required
 -------------------
 Symbolic Z-matrix:
 Charge =  0 Multiplicity = 2

                          Input orientation:
 ---------------------------------------------------------------------
 Center     Atomic      Atomic             Coordinates (Angstroms)
 Number     Number       Type             X           Y           Z
 ---------------------------------------------------------------------
      1          1           0        0.000000    0.000000    0.000000
      2          1           0       -0.650000    0.000000    0.000000
      3          9           0        3.100000    0.000000    0.000000
 ---------------------------------------------------------------------

 SCF Done:  E(UB3LYP) =  -100.927091628     a.u. after   90 cycles

 Alpha  occ. eigenvalues --  -24.76542  -1.22354  -0.55549  -0.46844  -0.46699
 Alpha  occ. eigenvalues --   -0.45170
 Alpha virt. eigenvalues --    0.07867   0.19308   0.50271   0.85907   0.90780
 Alpha virt. eigenvalues --    0.93897   1.05354   1.09599   1.09605   1.59836
 Alpha virt. eigenvalues --    1.86157   1.89402   1.89410   2.38062   3.64700

  Beta  occ. eigenvalues --  -24.73381  -1.13267  -0.45348  -0.43530  -0.43494
  Beta virt. eigenvalues --   -0.26174   0.07912   0.19335   0.50377   0.92279
  Beta virt. eigenvalues --    0.95365   0.95690   1.09033   1.09598   1.09604
  Beta virt. eigenvalues --    1.59852   1.86197   1.89401   1.89409   2.38067

 Mulliken charges and spin densities:
               1          2
     1  H   -0.006074  -0.001229
     2  H   -0.002559   0.000105
     3  F    0.008634   1.001125
 Sum of Mulliken charges =   0.00000   1.00000

 Dipole moment (field-independent basis, Debye):
    X=              0.0829    Y=             -0.0000    Z=              0.0000  Tot=              0.0829
 Quadrupole moment (field-independent basis, Debye-Ang):
   XX=             -6.0536   YY=             -6.1470   ZZ=             -6.6246
   XY=              0.0000   XZ=             -0.0000   YZ=             -0.3598

  Exact polarizability:       7.327       0.000       2.262       0.000      -0.192       2.007
 Approx polarizability:       8.037       0.000       2.434      -0.000      -0.241       2.115

 ******    2 imaginary frequencies (negative Signs) ******

                      1                      2                      3
                      A                      A                      A
 Frequencies --  -1947.4708             -1946.7981                57.1627
 Red. masses --      1.0087                 1.0087                 1.1085
 Frc consts  --      2.2541                 2.2525                 0.0021
 IR Inten    --      0.0197                 0.0183                 0.1890

                      4
                      A
 Frequencies --   5976.1332
 Red. masses --      1.0078
 Frc consts  --     21.2068
 IR Inten    --      0.2422

 - Thermochemistry -
 -------------------
 Temperature   298.150 Kelvin.  Pressure   1.00000 Atm.
 Atom     1 has atomic number  1 and mass   1.00783

 Molecular mass:    21.01405 amu.
 Principal axes and moments of inertia in atomic units:
                           1         2         3
     Eigenvalues --     0.00000  77.09838  77.09838
           X            1.00000  -0.00000   0.00000
           Y            0.00000   1.00000   0.00000
           Z            0.00000   0.00000   1.00000
 This molecule is a prolate symmetric top.
 Rotational symmetry number  1.
 Rotational temperature (Kelvin)      1.12342
 Rotational constant (GHZ):          23.408289
    2 imaginary frequencies ignored.
 Zero-point vibrational energy      36087.1 (Joules/Mol)
                                    8.62503 (Kcal/Mol)
 Warning -- explicit consideration of   1 degrees of freedom as
           vibrations may cause significant error
 Vibrational temperatures:     82.24  8598.32
          (Kelvin)

 Zero-point correction=                           0.013745 (Hartree/Particle)
 Thermal correction to Energy=                    0.016925
 Thermal correction to Enthalpy=                  0.017869
 Thermal correction to Gibbs Free Energy=        -0.007824
 Sum of electronic and zero-point Energies=           -100.913347
 Sum of electronic and thermal Energies=              -100.910166
 Sum of electronic and thermal Enthalpies=            -100.909222
 Sum of electronic and thermal Free Energies=         -100.934916

                     E (Thermal)             CV                S
                      KCal/Mol        Cal/Mol-Kelvin    Cal/Mol-Kelvin
 Total                   10.621              6.943             54.076
 Electronic               0.000              0.000              1.377
 Translational            0.889              2.981             35.068
 Rotational               0.592              1.987             13.078
 Vibrational              9.140              1.975              4.553
 Vibration     1          0.596              1.975              4.553

 Normal termination of Gaussian 16 at Fri Aug 22 19:46:38 2025.
