 Gaussian 16, Revision C.01,
 Gaussian 16:  ES64L-G16RevC.01  3-Jul-2019

 -----------------------------------------
 # sp b3lyp/6-311g** Force nosymm scf=(qc)
 -----------------------------------------

 -------------------
 Title Card Required
 -------------------
 Symbolic Z-matrix:
 Charge =  0 Multiplicity = 2

                          Input orientation:
 ---------------------------------------------------------------------
 Center     Atomic      Atomic             Coordinates (Angstroms)
 Number     Number       Type             X           Y           Z
 ---------------------------------------------------------------------
      1          1           0        0.000000    0.000000    0.000000
      2          1           0       -1.700000    0.000000    0.000000
      3          9           0        2.800000    0.000000    0.000000
 ---------------------------------------------------------------------

 SCF Done:  E(UB3LYP) =  -100.797405692     a.u. after   26 cycles

 Alpha  occ. eigenvalues --  -24.74017  -1.20079  -0.53147  -0.44622  -0.44622
 Alpha  occ. eigenvalues --   -0.34585
 Alpha virt. eigenvalues --   -0.11766   0.24791   0.30581   0.90068   0.92289
 Alpha virt. eigenvalues --    0.92289   1.04137   1.08556   1.22263   1.22263
 Alpha virt. eigenvalues --    1.36668   1.36668   1.66271   2.15369   2.41593

  Beta  occ. eigenvalues --  -24.71010  -1.11466  -0.41613  -0.41613  -0.34384
  Beta virt. eigenvalues --   -0.24950  -0.11334   0.25782   0.30569   0.93738
  Beta virt. eigenvalues --    0.93738   0.98136   1.06147   1.11296   1.22521
  Beta virt. eigenvalues --    1.22521   1.37117   1.37117   1.66802   2.16407

 Mulliken charges and spin densities:
               1          2
     1  H    0.014664  -0.592999
     2  H    0.026073   0.640613
     3  F   -0.040737   0.952386
 Sum of Mulliken charges =   0.00000   1.00000

 Dipole moment (field-independent basis, Debye):
    X=             -0.7939    Y=             -0.0000    Z=             -0.0000  Tot=              0.7939
 Quadrupole moment (field-independent basis, Debye-Ang):
   XX=             -7.0093   YY=             -7.7267   ZZ=             -7.7267
   XY=              0.0000   XZ=              0.0000   YZ=             -0.0000

  Exact polarizability:      62.430       0.000       2.016       0.000       0.000       2.016
 Approx polarizability:      72.600       0.000       1.971       0.000      -0.000       1.971

 ******    2 imaginary frequencies (negative Signs) ******

                      1                      2                      3
                      A                      A                      A
 Frequencies --  -1916.1367              -270.8069               885.1640
 Red. masses --      1.0080                 1.1083                 1.0130
 Frc consts  --      2.1805                 0.0479                 0.4677
 IR Inten    --    165.8028                35.3516                 0.0122

                      4
                      A
 Frequencies --    885.1640
 Red. masses --      1.0130
 Frc consts  --      0.4677
 IR Inten    --      0.0122

 - Thermochemistry -
 -------------------
 Temperature   298.150 Kelvin.  Pressure   1.00000 Atm.
 Atom     1 has atomic number  1 and mass   1.00783

 Molecular mass:    21.01405 amu.
 Principal axes and moments of inertia in atomic units:
                           1         2         3
     Eigenvalues --     0.00000  91.89793  91.89793
           X            1.00000  -0.00000   0.00000
           Y            0.00000   1.00000   0.00000
           Z            0.00000   0.00000   1.00000
 This molecule is a prolate symmetric top.
 Rotational symmetry number  1.
 Rotational temperature (Kelvin)      0.94250
 Rotational constant (GHZ):          19.638541
    2 imaginary frequencies ignored.
 Zero-point vibrational energy      10588.9 (Joules/Mol)
                                    2.53081 (Kcal/Mol)
 Vibrational temperatures:   1273.55  1273.55
          (Kelvin)

 Zero-point correction=                           0.004033 (Hartree/Particle)
 Thermal correction to Energy=                    0.006508
 Thermal correction to Enthalpy=                  0.007452
 Thermal correction to Gibbs Free Energy=        -0.016385
 Sum of electronic and zero-point Energies=           -100.793373
 Sum of electronic and thermal Energies=              -100.790898
 Sum of electronic and thermal Enthalpies=            -100.789954
 Sum of electronic and thermal Free Energies=         -100.813791

                     E (Thermal)             CV                S
                      KCal/Mol        Cal/Mol-Kelvin    Cal/Mol-Kelvin
 Total                    4.084              6.009             50.169
 Electronic               0.000              0.000              1.377
 Translational            0.889              2.981             35.068
 Rotational               0.592              1.987             13.427
 Vibrational              2.602              1.041              0.296

 Normal termination of Gaussian 16 at Fri Aug 22 18:42:39 2025.
