 Gaussian 16, Revision C.01,
 Gaussian 16:  ES64L-G16RevC.01  3-Jul-2019

 -----------------------------------------
 # sp b3lyp/6-311g** Force nosymm scf=(qc)
 -----------------------------------------

 -------------------
 Title Card Required
 -------------------
 Symbolic Z-matrix:
 Charge =  0 Multiplicity = 2

                          Input orientation:
 ---------------------------------------------------------------------
 Center     Atomic      Atomic             Coordinates (Angstroms)
 Number     Number       Type             X           Y           Z
 ---------------------------------------------------------------------
      1          1           0        0.000000    0.000000    0.000000
      2          1           0       -3.900000    0.000000    0.000000
      3          9           0        2.750000    0.000000    0.000000
 ---------------------------------------------------------------------

 SCF Done:  E(UB3LYP) =  -100.763166994     a.u. after   22 cycles

 Alpha  occ. eigenvalues --  -24.73044  -1.19178  -0.52159  -0.43803  -0.43803
 Alpha  occ. eigenvalues --   -0.32594
 Alpha virt. eigenvalues --   -0.08788   0.23699   0.35901   0.89884   0.92890
 Alpha virt. eigenvalues --    0.92890   1.05285   1.24904   1.24904   1.24930
 Alpha virt. eigenvalues --    1.42584   1.42584   1.44410   2.14269   2.39675

  Beta  occ. eigenvalues --  -24.70092  -1.10743  -0.40854  -0.40854  -0.34437
  Beta virt. eigenvalues --   -0.24160  -0.06066   0.23793   0.38115   0.94322
  Beta virt. eigenvalues --    0.94322   0.97900   1.08499   1.22875   1.22875
  Beta virt. eigenvalues --    1.24987   1.46482   1.46642   1.46642   2.13595

 Mulliken charges and spin densities:
               1          2
     1  H    0.059304  -0.933477
     2  H    0.000228   0.999234
     3  F   -0.059532   0.934243
 Sum of Mulliken charges =  -0.00000   1.00000

 Dipole moment (field-independent basis, Debye):
    X=             -0.8425    Y=             -0.0000    Z=              0.0000  Tot=              0.8425
 Quadrupole moment (field-independent basis, Debye-Ang):
   XX=             -8.8603   YY=             -7.5906   ZZ=             -7.5906
   XY=             -0.0000   XZ=             -0.0000   YZ=             -0.0000

  Exact polarizability:      31.235      -0.000       2.025       0.000      -0.000       2.025
 Approx polarizability:      36.260      -0.000       1.923       0.000       0.000       1.923

 ******    2 imaginary frequencies (negative Signs) ******

                      1                      2                      3
                      A                      A                      A
 Frequencies --   -472.5008               -76.8417               174.1534
 Red. masses --      1.0555                 1.0561                 1.0227
 Frc consts  --      0.1388                 0.0037                 0.0183
 IR Inten    --     59.0273                 0.0667                 3.4198

                      4
                      A
 Frequencies --    174.1534
 Red. masses --      1.0227
 Frc consts  --      0.0183
 IR Inten    --      3.4198

 - Thermochemistry -
 -------------------
 Temperature   298.150 Kelvin.  Pressure   1.00000 Atm.
 Atom     1 has atomic number  1 and mass   1.00783

 Molecular mass:    21.01405 amu.
 Principal axes and moments of inertia in atomic units:
                           1         2         3
     Eigenvalues --     0.00000 171.12311 171.12311
           X            1.00000  -0.00000   0.00000
           Y            0.00000   1.00000   0.00000
           Z            0.00000   0.00000   1.00000
 This molecule is a prolate symmetric top.
 Rotational symmetry number  1.
 Rotational temperature (Kelvin)      0.50615
 Rotational constant (GHZ):          10.546449
    2 imaginary frequencies ignored.
 Zero-point vibrational energy       2083.3 (Joules/Mol)
                                    0.49793 (Kcal/Mol)
 Warning -- explicit consideration of   2 degrees of freedom as
           vibrations may cause significant error
 Vibrational temperatures:    250.57   250.57
          (Kelvin)

 Zero-point correction=                           0.000794 (Hartree/Particle)
 Thermal correction to Energy=                    0.004359
 Thermal correction to Enthalpy=                  0.005303
 Thermal correction to Gibbs Free Energy=        -0.021252
 Sum of electronic and zero-point Energies=           -100.762373
 Sum of electronic and thermal Energies=              -100.758808
 Sum of electronic and thermal Enthalpies=            -100.757864
 Sum of electronic and thermal Free Energies=         -100.784419

                     E (Thermal)             CV                S
                      KCal/Mol        Cal/Mol-Kelvin    Cal/Mol-Kelvin
 Total                    2.735              8.717             55.888
 Electronic               0.000              0.000              1.377
 Translational            0.889              2.981             35.068
 Rotational               0.592              1.987             14.663
 Vibrational              1.254              3.749              4.780
 Vibration     1          0.627              1.874              2.390
 Vibration     2          0.627              1.874              2.390

 Normal termination of Gaussian 16 at Fri Aug 22 18:35:34 2025.
