 Gaussian 16, Revision C.01,
 Gaussian 16:  ES64L-G16RevC.01  3-Jul-2019

 -----------------------------------------
 # sp b3lyp/6-311g** Force nosymm scf=(qc)
 -----------------------------------------

 -------------------
 Title Card Required
 -------------------
 Symbolic Z-matrix:
 Charge =  0 Multiplicity = 2

                          Input orientation:
 ---------------------------------------------------------------------
 Center     Atomic      Atomic             Coordinates (Angstroms)
 Number     Number       Type             X           Y           Z
 ---------------------------------------------------------------------
      1          1           0        0.000000    0.000000    0.000000
      2          1           0       -1.800000    0.000000    0.000000
      3          9           0        1.150000    0.000000    0.000000
 ---------------------------------------------------------------------

 SCF Done:  E(UB3LYP) =  -100.940194178     a.u. after    7 cycles

 Alpha  occ. eigenvalues --  -24.63571  -1.12541  -0.49045  -0.37205  -0.37205
 Alpha  occ. eigenvalues --   -0.37018
 Alpha virt. eigenvalues --    0.00015   0.22782   0.29663   0.93885   0.93885
 Alpha virt. eigenvalues --    1.00460   1.09702   1.19411   1.19411   1.36594
 Alpha virt. eigenvalues --    1.36594   1.50889   1.76723   2.18865   2.34547

  Beta  occ. eigenvalues --  -24.63353  -1.11993  -0.47777  -0.37008  -0.37008
  Beta virt. eigenvalues --   -0.15484   0.03157   0.28393   0.33119   0.93909
  Beta virt. eigenvalues --    0.93909   1.01099   1.18423   1.32522   1.32522
  Beta virt. eigenvalues --    1.40902   1.40902   1.56232   1.81663   2.30473

 Mulliken charges and spin densities:
               1          2
     1  H    0.321535  -0.009814
     2  H    0.033441   0.946410
     3  F   -0.354976   0.063404
 Sum of Mulliken charges =   0.00000   1.00000

 Dipole moment (field-independent basis, Debye):
    X=             -2.5615    Y=             -0.0000    Z=             -0.0000  Tot=              2.5615
 Quadrupole moment (field-independent basis, Debye-Ang):
   XX=             -8.0190   YY=             -7.0178   ZZ=             -7.0178
   XY=              0.0000   XZ=              0.0000   YZ=              0.0000

  Exact polarizability:      15.509      -0.000       2.422       0.000      -0.000       2.422
 Approx polarizability:      18.421       0.000       2.394       0.000      -0.000       2.394

 ******    1 imaginary frequencies (negative Signs) ******

                      1                      2                      3
                      A                      A                      A
 Frequencies --   -452.0063              1144.4038              1144.4038
 Red. masses --      1.0292                 1.0242                 1.0242
 Frc consts  --      0.1239                 0.7903                 0.7903
 IR Inten    --     36.4313               101.7588               101.7588

                      4
                      A
 Frequencies --   1185.4409
 Red. masses --      1.0838
 Frc consts  --      0.8973
 IR Inten    --    195.8096

 - Thermochemistry -
 -------------------
 Temperature   298.150 Kelvin.  Pressure   1.00000 Atm.
 Atom     1 has atomic number  1 and mass   1.00783

 Molecular mass:    21.01405 amu.
 Principal axes and moments of inertia in atomic units:
                           1         2         3
     Eigenvalues --     0.00000  33.17854  33.17854
           X            1.00000  -0.00000   0.00000
           Y            0.00000   1.00000   0.00000
           Z            0.00000   0.00000   1.00000
 This molecule is a prolate symmetric top.
 Rotational symmetry number  1.
 Rotational temperature (Kelvin)      2.61054
 Rotational constant (GHZ):          54.394838
    1 imaginary frequencies ignored.
 Zero-point vibrational energy      20780.6 (Joules/Mol)
                                    4.96669 (Kcal/Mol)
 Vibrational temperatures:   1646.54  1646.54  1705.59
          (Kelvin)

 Zero-point correction=                           0.007915 (Hartree/Particle)
 Thermal correction to Energy=                    0.010335
 Thermal correction to Enthalpy=                  0.011279
 Thermal correction to Gibbs Free Energy=        -0.011525
 Sum of electronic and zero-point Energies=           -100.932279
 Sum of electronic and thermal Energies=              -100.929859
 Sum of electronic and thermal Enthalpies=            -100.928915
 Sum of electronic and thermal Free Energies=         -100.951719

                     E (Thermal)             CV                S
                      KCal/Mol        Cal/Mol-Kelvin    Cal/Mol-Kelvin
 Total                    6.485              5.671             47.996
 Electronic               0.000              0.000              1.377
 Translational            0.889              2.981             35.068
 Rotational               0.592              1.987             11.403
 Vibrational              5.004              0.703              0.148

 Normal termination of Gaussian 16 at Fri Aug 22 16:07:36 2025.
