 Gaussian 16, Revision C.01,
 Gaussian 16:  ES64L-G16RevC.01  3-Jul-2019

 -----------------------------------------
 # sp b3lyp/6-311g** Force nosymm scf=(qc)
 -----------------------------------------

 -------------------
 Title Card Required
 -------------------
 Symbolic Z-matrix:
 Charge =  0 Multiplicity = 2

                          Input orientation:
 ---------------------------------------------------------------------
 Center     Atomic      Atomic             Coordinates (Angstroms)
 Number     Number       Type             X           Y           Z
 ---------------------------------------------------------------------
      1          1           0        0.000000    0.000000    0.000000
      2          1           0       -0.900000    0.000000    0.000000
      3          9           0        0.800000    0.000000    0.000000
 ---------------------------------------------------------------------

 SCF Done:  E(UB3LYP) =  -100.906672645     a.u. after    6 cycles

 Alpha  occ. eigenvalues --  -24.65405  -1.26007  -0.63129  -0.42365  -0.42365
 Alpha  occ. eigenvalues --   -0.34241
 Alpha virt. eigenvalues --    0.15966   0.18456   0.63524   0.88610   0.88610
 Alpha virt. eigenvalues --    0.94635   1.08572   1.08572   1.45510   1.69655
 Alpha virt. eigenvalues --    1.69655   1.78234   2.12346   2.34493   3.66825

  Beta  occ. eigenvalues --  -24.64683  -1.24046  -0.58877  -0.41743  -0.41743
  Beta virt. eigenvalues --   -0.14962   0.17073   0.22806   0.69141   0.90454
  Beta virt. eigenvalues --    0.90454   0.96138   1.14508   1.14508   1.46915
  Beta virt. eigenvalues --    1.75202   1.75202   1.87211   2.15729   2.46320

 Mulliken charges and spin densities:
               1          2
     1  H    0.262140  -0.011928
     2  H   -0.024427   0.864511
     3  F   -0.237713   0.147417
 Sum of Mulliken charges =   0.00000   1.00000

 Dipole moment (field-independent basis, Debye):
    X=             -1.4042    Y=              0.0000    Z=             -0.0000  Tot=              1.4042
 Quadrupole moment (field-independent basis, Debye-Ang):
   XX=             -7.5043   YY=             -6.5300   ZZ=             -6.5300
   XY=              0.0000   XZ=             -0.0000   YZ=             -0.0000

  Exact polarizability:      10.062       0.000       2.570      -0.000       0.000       2.570
 Approx polarizability:      10.557      -0.000       2.626      -0.000       0.000       2.626

 ******    2 imaginary frequencies (negative Signs) ******

                      1                      2                      3
                      A                      A                      A
 Frequencies --  -2452.6762             -2452.6762              2301.1291
 Red. masses --      1.0194                 1.0194                 1.0591
 Frc consts  --      3.6132                 3.6132                 3.3042
 IR Inten    --     92.2530                92.2530                99.7378

                      4
                      A
 Frequencies --   6168.8642
 Red. masses --      1.0525
 Frc consts  --     23.5979
 IR Inten    --     51.0210

 - Thermochemistry -
 -------------------
 Temperature   298.150 Kelvin.  Pressure   1.00000 Atm.
 Atom     1 has atomic number  1 and mass   1.00783

 Molecular mass:    21.01405 amu.
 Principal axes and moments of inertia in atomic units:
                           1         2         3
     Eigenvalues --     0.00000  11.62571  11.62571
           X            1.00000  -0.00000   0.00000
           Y            0.00000   1.00000   0.00000
           Z            0.00000   0.00000   1.00000
 This molecule is a prolate symmetric top.
 Rotational symmetry number  1.
 Rotational temperature (Kelvin)      7.45021
 Rotational constant (GHZ):         155.237115
    2 imaginary frequencies ignored.
 Zero-point vibrational energy      50661.8 (Joules/Mol)
                                   12.10846 (Kcal/Mol)
 Vibrational temperatures:   3310.81  8875.62
          (Kelvin)

 Zero-point correction=                           0.019296 (Hartree/Particle)
 Thermal correction to Energy=                    0.021657
 Thermal correction to Enthalpy=                  0.022601
 Thermal correction to Gibbs Free Energy=         0.000857
 Sum of electronic and zero-point Energies=           -100.887377
 Sum of electronic and thermal Energies=              -100.885016
 Sum of electronic and thermal Enthalpies=            -100.884072
 Sum of electronic and thermal Free Energies=         -100.905816

                     E (Thermal)             CV                S
                      KCal/Mol        Cal/Mol-Kelvin    Cal/Mol-Kelvin
 Total                   13.590              4.972             45.765
 Electronic               0.000              0.000              1.377
 Translational            0.889              2.981             35.068
 Rotational               0.592              1.987              9.319
 Vibrational             12.109              0.004              0.000

 Normal termination of Gaussian 16 at Fri Aug 22 15:50:20 2025.
