 Gaussian 16, Revision C.01,
 Gaussian 16:  ES64L-G16RevC.01  3-Jul-2019

 -----------------------------------------
 # sp b3lyp/6-311g** Force nosymm scf=(qc)
 -----------------------------------------

 -------------------
 Title Card Required
 -------------------
 Symbolic Z-matrix:
 Charge =  0 Multiplicity = 2

                          Input orientation:
 ---------------------------------------------------------------------
 Center     Atomic      Atomic             Coordinates (Angstroms)
 Number     Number       Type             X           Y           Z
 ---------------------------------------------------------------------
      1          1           0        0.000000    0.000000    0.000000
      2          1           0       -2.100000    0.000000    0.000000
      3          9           0        3.200000    0.000000    0.000000
 ---------------------------------------------------------------------

 SCF Done:  E(UB3LYP) =  -100.771582050     a.u. after   25 cycles

 Alpha  occ. eigenvalues --  -24.74918  -1.20914  -0.54038  -0.45373  -0.45373
 Alpha  occ. eigenvalues --   -0.33291
 Alpha virt. eigenvalues --   -0.11194   0.25699   0.32443   0.88775   0.91764
 Alpha virt. eigenvalues --    0.91764   1.02849   1.20486   1.24629   1.24629
 Alpha virt. eigenvalues --    1.37916   1.37916   1.47248   2.13077   2.35918

  Beta  occ. eigenvalues --  -24.71839  -1.12075  -0.42289  -0.42289  -0.33486
  Beta virt. eigenvalues --   -0.25281  -0.10658   0.25792   0.33122   0.93242
  Beta virt. eigenvalues --    0.93242   0.97733   1.06823   1.20307   1.24361
  Beta virt. eigenvalues --    1.24361   1.38736   1.38736   1.47906   2.14097

 Mulliken charges and spin densities:
               1          2
     1  H    0.011927  -0.874375
     2  H    0.009147   0.898302
     3  F   -0.021074   0.976073
 Sum of Mulliken charges =   0.00000   1.00000

 Dipole moment (field-independent basis, Debye):
    X=             -0.4373    Y=              0.0000    Z=              0.0000  Tot=              0.4373
 Quadrupole moment (field-independent basis, Debye-Ang):
   XX=             -7.1541   YY=             -7.7051   ZZ=             -7.7051
   XY=              0.0000   XZ=              0.0000   YZ=             -0.0000

  Exact polarizability:      51.900       0.000       2.009       0.000      -0.000       2.009
 Approx polarizability:      43.781       0.000       1.929       0.000       0.000       1.929

 ******    2 imaginary frequencies (negative Signs) ******

                      1                      2                      3
                      A                      A                      A
 Frequencies --  -1188.1843              -193.5644               467.9137
 Red. masses --      1.0079                 1.1084                 1.0136
 Frc consts  --      0.8384                 0.0245                 0.1308
 IR Inten    --     20.4544                17.8025                 0.0581

                      4
                      A
 Frequencies --    467.9137
 Red. masses --      1.0136
 Frc consts  --      0.1308
 IR Inten    --      0.0581

 - Thermochemistry -
 -------------------
 Temperature   298.150 Kelvin.  Pressure   1.00000 Atm.
 Atom     1 has atomic number  1 and mass   1.00783

 Molecular mass:    21.01405 amu.
 Principal axes and moments of inertia in atomic units:
                           1         2         3
     Eigenvalues --     0.00000 125.47915 125.47915
           X            1.00000  -0.00000   0.00000
           Y            0.00000   1.00000   0.00000
           Z            0.00000   0.00000   1.00000
 This molecule is a prolate symmetric top.
 Rotational symmetry number  1.
 Rotational temperature (Kelvin)      0.69027
 Rotational constant (GHZ):          14.382798
    2 imaginary frequencies ignored.
 Zero-point vibrational energy       5597.5 (Joules/Mol)
                                    1.33783 (Kcal/Mol)
 Warning -- explicit consideration of   2 degrees of freedom as
           vibrations may cause significant error
 Vibrational temperatures:    673.22   673.22
          (Kelvin)

 Zero-point correction=                           0.002132 (Hartree/Particle)
 Thermal correction to Energy=                    0.004990
 Thermal correction to Enthalpy=                  0.005935
 Thermal correction to Gibbs Free Energy=        -0.018762
 Sum of electronic and zero-point Energies=           -100.769450
 Sum of electronic and thermal Energies=              -100.766592
 Sum of electronic and thermal Enthalpies=            -100.765648
 Sum of electronic and thermal Free Energies=         -100.790344

                     E (Thermal)             CV                S
                      KCal/Mol        Cal/Mol-Kelvin    Cal/Mol-Kelvin
 Total                    3.131              7.610             51.978
 Electronic               0.000              0.000              1.377
 Translational            0.889              2.981             35.068
 Rotational               0.592              1.987             14.046
 Vibrational              1.650              2.642              1.487
 Vibration     1          0.825              1.321              0.743
 Vibration     2          0.825              1.321              0.743

 Normal termination of Gaussian 16 at Fri Aug 22 20:23:15 2025.
