 Gaussian 16, Revision C.01,
 Gaussian 16:  ES64L-G16RevC.01  3-Jul-2019

 -----------------------------------------
 # sp b3lyp/6-311g** Force nosymm scf=(qc)
 -----------------------------------------

 -------------------
 Title Card Required
 -------------------
 Symbolic Z-matrix:
 Charge =  0 Multiplicity = 2

                          Input orientation:
 ---------------------------------------------------------------------
 Center     Atomic      Atomic             Coordinates (Angstroms)
 Number     Number       Type             X           Y           Z
 ---------------------------------------------------------------------
      1          1           0        0.000000    0.000000    0.000000
      2          1           0       -2.750000    0.000000    0.000000
      3          9           0        3.800000    0.000000    0.000000
 ---------------------------------------------------------------------

 SCF Done:  E(UB3LYP) =  -100.760646808     a.u. after   33 cycles

 Alpha  occ. eigenvalues --  -24.75777  -1.21712  -0.54902  -0.46097  -0.46097
 Alpha  occ. eigenvalues --   -0.32446
 Alpha virt. eigenvalues --   -0.08463   0.25442   0.35531   0.86851   0.91233
 Alpha virt. eigenvalues --    0.91233   1.01248   1.25129   1.25129   1.26361
 Alpha virt. eigenvalues --    1.43161   1.43161   1.43627   2.16041   2.38431

  Beta  occ. eigenvalues --  -24.72639  -1.12689  -0.42951  -0.42951  -0.32660
  Beta virt. eigenvalues --   -0.25688  -0.08173   0.25259   0.35941   0.92730
  Beta virt. eigenvalues --    0.92730   0.96168   1.05352   1.24889   1.24889
  Beta virt. eigenvalues --    1.26092   1.43598   1.43598   1.44063   2.16182

 Mulliken charges and spin densities:
               1          2
     1  H    0.003758  -0.980077
     2  H    0.000684   0.985066
     3  F   -0.004442   0.995011
 Sum of Mulliken charges =   0.00000   1.00000

 Dipole moment (field-independent basis, Debye):
    X=             -0.0959    Y=              0.0000    Z=             -0.0000  Tot=              0.0959
 Quadrupole moment (field-independent basis, Debye-Ang):
   XX=             -6.9039   YY=             -7.6484   ZZ=             -7.6484
   XY=              0.0000   XZ=              0.0000   YZ=              0.0000

  Exact polarizability:      20.181       0.000       2.024       0.000       0.000       2.024
 Approx polarizability:      14.916       0.000       1.932       0.000       0.000       1.932

 ******    2 imaginary frequencies (negative Signs) ******

                      1                      2                      3
                      A                      A                      A
 Frequencies --   -468.8748               -95.2404               168.9505
 Red. masses --      1.0080                 1.1083                 1.0145
 Frc consts  --      0.1306                 0.0059                 0.0171
 IR Inten    --      1.6654                 1.6502                 0.0114

                      4
                      A
 Frequencies --    168.9505
 Red. masses --      1.0145
 Frc consts  --      0.0171
 IR Inten    --      0.0114

 - Thermochemistry -
 -------------------
 Temperature   298.150 Kelvin.  Pressure   1.00000 Atm.
 Atom     1 has atomic number  1 and mass   1.00783

 Molecular mass:    21.01405 amu.
 Principal axes and moments of inertia in atomic units:
                           1         2         3
     Eigenvalues --     0.00000 187.88606 187.88606
           X            1.00000  -0.00000   0.00000
           Y            0.00000   1.00000   0.00000
           Z            0.00000   0.00000   1.00000
 This molecule is a prolate symmetric top.
 Rotational symmetry number  1.
 Rotational temperature (Kelvin)      0.46099
 Rotational constant (GHZ):           9.605509
    2 imaginary frequencies ignored.
 Zero-point vibrational energy       2021.1 (Joules/Mol)
                                    0.48305 (Kcal/Mol)
 Warning -- explicit consideration of   2 degrees of freedom as
           vibrations may cause significant error
 Vibrational temperatures:    243.08   243.08
          (Kelvin)

 Zero-point correction=                           0.000770 (Hartree/Particle)
 Thermal correction to Energy=                    0.004352
 Thermal correction to Enthalpy=                  0.005296
 Thermal correction to Gibbs Free Energy=        -0.021400
 Sum of electronic and zero-point Energies=           -100.759877
 Sum of electronic and thermal Energies=              -100.756295
 Sum of electronic and thermal Enthalpies=            -100.755350
 Sum of electronic and thermal Free Energies=         -100.782047

                     E (Thermal)             CV                S
                      KCal/Mol        Cal/Mol-Kelvin    Cal/Mol-Kelvin
 Total                    2.731              8.729             56.188
 Electronic               0.000              0.000              1.377
 Translational            0.889              2.981             35.068
 Rotational               0.592              1.987             14.848
 Vibrational              1.250              3.761              4.894
 Vibration     1          0.625              1.881              2.447
 Vibration     2          0.625              1.881              2.447

 Normal termination of Gaussian 16 at Sat Aug 23 00:50:58 2025.
