 Gaussian 16, Revision C.01,
 Gaussian 16:  ES64L-G16RevC.01  3-Jul-2019

 -----------------------------------------
 # sp b3lyp/6-311g** Force nosymm scf=(qc)
 -----------------------------------------

 -------------------
 Title Card Required
 -------------------
 Symbolic Z-matrix:
 Charge =  0 Multiplicity = 2

                          Input orientation:
 ---------------------------------------------------------------------
 Center     Atomic      Atomic             Coordinates (Angstroms)
 Number     Number       Type             X           Y           Z
 ---------------------------------------------------------------------
      1          1           0        0.000000    0.000000    0.000000
      2          1           0       -2.800000    0.000000    0.000000
      3          9           0        3.250000    0.000000    0.000000
 ---------------------------------------------------------------------

 SCF Done:  E(UB3LYP) =  -100.761416996     a.u. after   23 cycles

 Alpha  occ. eigenvalues --  -24.74892  -1.20891  -0.54012  -0.45350  -0.45350
 Alpha  occ. eigenvalues --   -0.32645
 Alpha virt. eigenvalues --   -0.08993   0.25158   0.34839   0.88517   0.91786
 Alpha virt. eigenvalues --    0.91786   1.02655   1.24921   1.24921   1.26121
 Alpha virt. eigenvalues --    1.42403   1.42403   1.42820   2.15814   2.38591

  Beta  occ. eigenvalues --  -24.71811  -1.12046  -0.42264  -0.42264  -0.33264
  Beta virt. eigenvalues --   -0.25229  -0.08125   0.25004   0.36036   0.93264
  Beta virt. eigenvalues --    0.93264   0.97500   1.06596   1.24188   1.24188
  Beta virt. eigenvalues --    1.25295   1.43797   1.43797   1.44134   2.16436

 Mulliken charges and spin densities:
               1          2
     1  H    0.019305  -0.963949
     2  H    0.001766   0.987261
     3  F   -0.021072   0.976688
 Sum of Mulliken charges =  -0.00000   1.00000

 Dipole moment (field-independent basis, Debye):
    X=             -0.3754    Y=              0.0000    Z=              0.0000  Tot=              0.3754
 Quadrupole moment (field-independent basis, Debye-Ang):
   XX=             -7.6499   YY=             -7.6396   ZZ=             -7.6396
   XY=             -0.0000   XZ=             -0.0000   YZ=              0.0000

  Exact polarizability:      34.387      -0.000       2.023      -0.000      -0.000       2.023
 Approx polarizability:      28.992      -0.000       1.927      -0.000       0.000       1.927

 ******    2 imaginary frequencies (negative Signs) ******

                      1                      2                      3
                      A                      A                      A
 Frequencies --   -474.2625              -174.5316               171.2851
 Red. masses --      1.0113                 1.1043                 1.0162
 Frc consts  --      0.1340                 0.0198                 0.0176
 IR Inten    --     15.6127                 8.8264                 0.3096

                      4
                      A
 Frequencies --    171.2851
 Red. masses --      1.0162
 Frc consts  --      0.0176
 IR Inten    --      0.3096

 - Thermochemistry -
 -------------------
 Temperature   298.150 Kelvin.  Pressure   1.00000 Atm.
 Atom     1 has atomic number  1 and mass   1.00783

 Molecular mass:    21.01405 amu.
 Principal axes and moments of inertia in atomic units:
                           1         2         3
     Eigenvalues --     0.00000 154.81847 154.81847
           X            1.00000  -0.00000   0.00000
           Y            0.00000   1.00000   0.00000
           Z            0.00000   0.00000   1.00000
 This molecule is a prolate symmetric top.
 Rotational symmetry number  1.
 Rotational temperature (Kelvin)      0.55945
 Rotational constant (GHZ):          11.657144
    2 imaginary frequencies ignored.
 Zero-point vibrational energy       2049.0 (Joules/Mol)
                                    0.48973 (Kcal/Mol)
 Warning -- explicit consideration of   2 degrees of freedom as
           vibrations may cause significant error
 Vibrational temperatures:    246.44   246.44
          (Kelvin)

 Zero-point correction=                           0.000780 (Hartree/Particle)
 Thermal correction to Energy=                    0.004355
 Thermal correction to Enthalpy=                  0.005299
 Thermal correction to Gibbs Free Energy=        -0.021190
 Sum of electronic and zero-point Energies=           -100.760637
 Sum of electronic and thermal Energies=              -100.757062
 Sum of electronic and thermal Enthalpies=            -100.756118
 Sum of electronic and thermal Free Energies=         -100.782607

                     E (Thermal)             CV                S
                      KCal/Mol        Cal/Mol-Kelvin    Cal/Mol-Kelvin
 Total                    2.733              8.724             55.752
 Electronic               0.000              0.000              1.377
 Translational            0.889              2.981             35.068
 Rotational               0.592              1.987             14.464
 Vibrational              1.252              3.756              4.843
 Vibration     1          0.626              1.878              2.421
 Vibration     2          0.626              1.878              2.421

 Normal termination of Gaussian 16 at Fri Aug 22 20:35:24 2025.
