 Gaussian 16, Revision C.01,
 Gaussian 16:  ES64L-G16RevC.01  3-Jul-2019

 -----------------------------------------
 # sp b3lyp/6-311g** Force nosymm scf=(qc)
 -----------------------------------------

 -------------------
 Title Card Required
 -------------------
 Symbolic Z-matrix:
 Charge =  0 Multiplicity = 2

                          Input orientation:
 ---------------------------------------------------------------------
 Center     Atomic      Atomic             Coordinates (Angstroms)
 Number     Number       Type             X           Y           Z
 ---------------------------------------------------------------------
      1          1           0        0.000000    0.000000    0.000000
      2          1           0       -1.750000    0.000000    0.000000
      3          9           0        2.350000    0.000000    0.000000
 ---------------------------------------------------------------------

 SCF Done:  E(UB3LYP) =  -100.799682766     a.u. after   17 cycles

 Alpha  occ. eigenvalues --  -24.71352  -1.17584  -0.50496  -0.42379  -0.42379
 Alpha  occ. eigenvalues --   -0.35877
 Alpha virt. eigenvalues --   -0.12558   0.24069   0.31302   0.87946   0.93766
 Alpha virt. eigenvalues --    0.93766   1.03365   1.18721   1.21357   1.21357
 Alpha virt. eigenvalues --    1.34993   1.34993   1.62325   2.13265   2.38629

  Beta  occ. eigenvalues --  -24.68561  -1.09656  -0.39600  -0.39600  -0.35684
  Beta virt. eigenvalues --   -0.23573  -0.11689   0.26242   0.30697   0.93143
  Beta virt. eigenvalues --    0.95073   0.95073   1.06766   1.22055   1.22055
  Beta virt. eigenvalues --    1.22830   1.35904   1.35904   1.62888   2.14116

 Mulliken charges and spin densities:
               1          2
     1  H    0.056108  -0.604977
     2  H    0.043552   0.724144
     3  F   -0.099660   0.880833
 Sum of Mulliken charges =   0.00000   1.00000

 Dipole moment (field-independent basis, Debye):
    X=             -1.5511    Y=             -0.0000    Z=             -0.0000  Tot=              1.5511
 Quadrupole moment (field-independent basis, Debye-Ang):
   XX=             -7.8528   YY=             -7.6536   ZZ=             -7.6536
   XY=             -0.0000   XZ=             -0.0000   YZ=             -0.0000

  Exact polarizability:      60.862      -0.000       2.028      -0.000       0.000       2.028
 Approx polarizability:      76.769       0.000       1.966       0.000       0.000       1.966

 ******    2 imaginary frequencies (negative Signs) ******

                      1                      2                      3
                      A                      A                      A
 Frequencies --  -1847.2220              -428.1971               810.2279
 Red. masses --      1.0090                 1.1070                 1.0148
 Frc consts  --      2.0286                 0.1196                 0.3925
 IR Inten    --    233.0418                49.8641                 1.0864

                      4
                      A
 Frequencies --    810.2279
 Red. masses --      1.0148
 Frc consts  --      0.3925
 IR Inten    --      1.0864

 - Thermochemistry -
 -------------------
 Temperature   298.150 Kelvin.  Pressure   1.00000 Atm.
 Atom     1 has atomic number  1 and mass   1.00783

 Molecular mass:    21.01405 amu.
 Principal axes and moments of inertia in atomic units:
                           1         2         3
     Eigenvalues --     0.00000  73.19398  73.19398
           X            1.00000  -0.00000   0.00000
           Y            0.00000   1.00000   0.00000
           Z            0.00000   0.00000   1.00000
 This molecule is a prolate symmetric top.
 Rotational symmetry number  1.
 Rotational temperature (Kelvin)      1.18335
 Rotational constant (GHZ):          24.656963
    2 imaginary frequencies ignored.
 Zero-point vibrational energy       9692.5 (Joules/Mol)
                                    2.31656 (Kcal/Mol)
 Vibrational temperatures:   1165.74  1165.74
          (Kelvin)

 Zero-point correction=                           0.003692 (Hartree/Particle)
 Thermal correction to Energy=                    0.006203
 Thermal correction to Enthalpy=                  0.007147
 Thermal correction to Gibbs Free Energy=        -0.016523
 Sum of electronic and zero-point Energies=           -100.795991
 Sum of electronic and thermal Energies=              -100.793480
 Sum of electronic and thermal Enthalpies=            -100.792535
 Sum of electronic and thermal Free Energies=         -100.816206

                     E (Thermal)             CV                S
                      KCal/Mol        Cal/Mol-Kelvin    Cal/Mol-Kelvin
 Total                    3.893              6.236             49.819
 Electronic               0.000              0.000              1.377
 Translational            0.889              2.981             35.068
 Rotational               0.592              1.987             12.975
 Vibrational              2.411              1.268              0.398

 Normal termination of Gaussian 16 at Fri Aug 22 17:26:05 2025.
