 Gaussian 16, Revision C.01,
 Gaussian 16:  ES64L-G16RevC.01  3-Jul-2019

 -----------------------------------------
 # sp b3lyp/6-311g** Force nosymm scf=(qc)
 -----------------------------------------

 -------------------
 Title Card Required
 -------------------
 Symbolic Z-matrix:
 Charge =  0 Multiplicity = 2

                          Input orientation:
 ---------------------------------------------------------------------
 Center     Atomic      Atomic             Coordinates (Angstroms)
 Number     Number       Type             X           Y           Z
 ---------------------------------------------------------------------
      1          1           0        0.000000    0.000000    0.000000
      2          1           0       -1.600000    0.000000    0.000000
      3          9           0        1.750000    0.000000    0.000000
 ---------------------------------------------------------------------

 SCF Done:  E(UB3LYP) =  -100.841288062     a.u. after   11 cycles

 Alpha  occ. eigenvalues --  -24.66863  -1.13296  -0.46827  -0.38664  -0.38664
 Alpha  occ. eigenvalues --   -0.38472
 Alpha virt. eigenvalues --   -0.10583   0.21979   0.29795   0.88149   0.94244
 Alpha virt. eigenvalues --    0.94244   1.03342   1.17365   1.17365   1.36162
 Alpha virt. eigenvalues --    1.37078   1.37078   1.81082   2.17363   2.39420

  Beta  occ. eigenvalues --  -24.64793  -1.07588  -0.39033  -0.36643  -0.36643
  Beta virt. eigenvalues --   -0.22219  -0.08232   0.24767   0.29992   0.91616
  Beta virt. eigenvalues --    0.94588   0.94588   1.07310   1.21789   1.21789
  Beta virt. eigenvalues --    1.37744   1.37744   1.41880   1.83268   2.18331

 Mulliken charges and spin densities:
               1          2
     1  H    0.169020  -0.373339
     2  H    0.069377   0.725851
     3  F   -0.238397   0.647489
 Sum of Mulliken charges =   0.00000   1.00000

 Dipole moment (field-independent basis, Debye):
    X=             -2.5772    Y=              0.0000    Z=             -0.0000  Tot=              2.5772
 Quadrupole moment (field-independent basis, Debye-Ang):
   XX=             -8.2026   YY=             -7.4213   ZZ=             -7.4213
   XY=              0.0000   XZ=             -0.0000   YZ=             -0.0000

  Exact polarizability:      45.821       0.000       2.173      -0.000       0.000       2.173
 Approx polarizability:      66.786      -0.000       2.103       0.000       0.000       2.103

 ******    2 imaginary frequencies (negative Signs) ******

                      1                      2                      3
                      A                      A                      A
 Frequencies --  -2306.9744              -582.6464               973.0900
 Red. masses --      1.0186                 1.0958                 1.0169
 Frc consts  --      3.1940                 0.2192                 0.5673
 IR Inten    --    484.5399                 3.4101                12.4203

                      4
                      A
 Frequencies --    973.0900
 Red. masses --      1.0169
 Frc consts  --      0.5673
 IR Inten    --     12.4203

 - Thermochemistry -
 -------------------
 Temperature   298.150 Kelvin.  Pressure   1.00000 Atm.
 Atom     1 has atomic number  1 and mass   1.00783

 Molecular mass:    21.01405 amu.
 Principal axes and moments of inertia in atomic units:
                           1         2         3
     Eigenvalues --     0.00000  46.92233  46.92233
           X            1.00000  -0.00000   0.00000
           Y            0.00000   1.00000   0.00000
           Z            0.00000   0.00000   1.00000
 This molecule is a prolate symmetric top.
 Rotational symmetry number  1.
 Rotational temperature (Kelvin)      1.84590
 Rotational constant (GHZ):          38.462309
    2 imaginary frequencies ignored.
 Zero-point vibrational energy      11640.7 (Joules/Mol)
                                    2.78220 (Kcal/Mol)
 Vibrational temperatures:   1400.06  1400.06
          (Kelvin)

 Zero-point correction=                           0.004434 (Hartree/Particle)
 Thermal correction to Energy=                    0.006876
 Thermal correction to Enthalpy=                  0.007820
 Thermal correction to Gibbs Free Energy=        -0.015340
 Sum of electronic and zero-point Energies=           -100.836854
 Sum of electronic and thermal Energies=              -100.834412
 Sum of electronic and thermal Enthalpies=            -100.833468
 Sum of electronic and thermal Free Energies=         -100.856628

                     E (Thermal)             CV                S
                      KCal/Mol        Cal/Mol-Kelvin    Cal/Mol-Kelvin
 Total                    4.315              5.783             48.745
 Electronic               0.000              0.000              1.377
 Translational            0.889              2.981             35.068
 Rotational               0.592              1.987             12.091
 Vibrational              2.833              0.815              0.208

 Normal termination of Gaussian 16 at Fri Aug 22 16:40:06 2025.
