 Gaussian 16, Revision C.01,
 Gaussian 16:  ES64L-G16RevC.01  3-Jul-2019

 -----------------------------------------
 # sp b3lyp/6-311g** Force nosymm scf=(qc)
 -----------------------------------------

 -------------------
 Title Card Required
 -------------------
 Symbolic Z-matrix:
 Charge =  0 Multiplicity = 2

                          Input orientation:
 ---------------------------------------------------------------------
 Center     Atomic      Atomic             Coordinates (Angstroms)
 Number     Number       Type             X           Y           Z
 ---------------------------------------------------------------------
      1          1           0        0.000000    0.000000    0.000000
      2          1           0       -1.650000    0.000000    0.000000
      3          9           0        3.100000    0.000000    0.000000
 ---------------------------------------------------------------------

 SCF Done:  E(UB3LYP) =  -100.800909220     a.u. after   32 cycles

 Alpha  occ. eigenvalues --  -24.75166  -1.21147  -0.54293  -0.45592  -0.45592
 Alpha  occ. eigenvalues --   -0.34041
 Alpha virt. eigenvalues --   -0.11176   0.25038   0.30172   0.89147   0.91581
 Alpha virt. eigenvalues --    0.91581   1.03313   1.06161   1.22285   1.22285
 Alpha virt. eigenvalues --    1.37895   1.37895   1.70434   2.17300   2.42942

  Beta  occ. eigenvalues --  -24.72081  -1.12289  -0.42502  -0.42502  -0.33912
  Beta virt. eigenvalues --   -0.25536  -0.10937   0.25367   0.30459   0.93058
  Beta virt. eigenvalues --    0.93058   0.97985   1.06127   1.07557   1.22433
  Beta virt. eigenvalues --    1.22433   1.38108   1.38108   1.70760   2.18066

 Mulliken charges and spin densities:
               1          2
     1  H    0.002127  -0.537915
     2  H    0.016274   0.560076
     3  F   -0.018401   0.977839
 Sum of Mulliken charges =   0.00000   1.00000

 Dipole moment (field-independent basis, Debye):
    X=             -0.4185    Y=              0.0000    Z=              0.0000  Tot=              0.4185
 Quadrupole moment (field-independent basis, Debye-Ang):
   XX=             -6.3955   YY=             -7.7514   ZZ=             -7.7514
   XY=              0.0000   XZ=              0.0000   YZ=             -0.0000

  Exact polarizability:      54.542       0.000       2.052       0.000      -0.000       2.052
 Approx polarizability:      63.139       0.000       1.986       0.000       0.000       1.986

 ******    2 imaginary frequencies (negative Signs) ******

                      1                      2                      3
                      A                      A                      A
 Frequencies --  -1993.7874              -187.1061               964.2144
 Red. masses --      1.0079                 1.1085                 1.0121
 Frc consts  --      2.3605                 0.0229                 0.5544
 IR Inten    --    102.4936                17.7070                 0.0053

                      4
                      A
 Frequencies --    964.2144
 Red. masses --      1.0121
 Frc consts  --      0.5544
 IR Inten    --      0.0053

 - Thermochemistry -
 -------------------
 Temperature   298.150 Kelvin.  Pressure   1.00000 Atm.
 Atom     1 has atomic number  1 and mass   1.00783

 Molecular mass:    21.01405 amu.
 Principal axes and moments of inertia in atomic units:
                           1         2         3
     Eigenvalues --     0.00000 105.15263 105.15263
           X            1.00000  -0.00000   0.00000
           Y            0.00000   1.00000   0.00000
           Z            0.00000   0.00000   1.00000
 This molecule is a prolate symmetric top.
 Rotational symmetry number  1.
 Rotational temperature (Kelvin)      0.82370
 Rotational constant (GHZ):          17.163062
    2 imaginary frequencies ignored.
 Zero-point vibrational energy      11534.6 (Joules/Mol)
                                    2.75683 (Kcal/Mol)
 Vibrational temperatures:   1387.29  1387.29
          (Kelvin)

 Zero-point correction=                           0.004393 (Hartree/Particle)
 Thermal correction to Energy=                    0.006838
 Thermal correction to Enthalpy=                  0.007782
 Thermal correction to Gibbs Free Energy=        -0.016143
 Sum of electronic and zero-point Energies=           -100.796516
 Sum of electronic and thermal Energies=              -100.794071
 Sum of electronic and thermal Enthalpies=            -100.793127
 Sum of electronic and thermal Free Energies=         -100.817053

                     E (Thermal)             CV                S
                      KCal/Mol        Cal/Mol-Kelvin    Cal/Mol-Kelvin
 Total                    4.291              5.804             50.356
 Electronic               0.000              0.000              1.377
 Translational            0.889              2.981             35.068
 Rotational               0.592              1.987             13.695
 Vibrational              2.810              0.836              0.216

 Normal termination of Gaussian 16 at Fri Aug 22 19:53:55 2025.
