 Gaussian 16, Revision C.01,
 Gaussian 16:  ES64L-G16RevC.01  3-Jul-2019

 -----------------------------------------
 # sp b3lyp/6-311g** Force nosymm scf=(qc)
 -----------------------------------------

 -------------------
 Title Card Required
 -------------------
 Symbolic Z-matrix:
 Charge =  0 Multiplicity = 2

                          Input orientation:
 ---------------------------------------------------------------------
 Center     Atomic      Atomic             Coordinates (Angstroms)
 Number     Number       Type             X           Y           Z
 ---------------------------------------------------------------------
      1          1           0        0.000000    0.000000    0.000000
      2          1           0       -3.000000    0.000000    0.000000
      3          9           0        1.150000    0.000000    0.000000
 ---------------------------------------------------------------------

 SCF Done:  E(UB3LYP) =  -100.937519360     a.u. after    6 cycles

 Alpha  occ. eigenvalues --  -24.64277  -1.12965  -0.48629  -0.37755  -0.37755
 Alpha  occ. eigenvalues --   -0.34369
 Alpha virt. eigenvalues --   -0.03864   0.23773   0.29768   0.93396   0.93396
 Alpha virt. eigenvalues --    1.00217   1.22962   1.23161   1.23161   1.29274
 Alpha virt. eigenvalues --    1.34984   1.34984   1.76116   2.14162   2.30678

  Beta  occ. eigenvalues --  -24.64266  -1.12936  -0.48591  -0.37745  -0.37745
  Beta virt. eigenvalues --   -0.08789  -0.02241   0.28732   0.37863   0.93396
  Beta virt. eigenvalues --    0.93396   1.00241   1.28505   1.34964   1.34964
  Beta virt. eigenvalues --    1.46152   1.46152   1.46624   1.76276   2.30652

 Mulliken charges and spin densities:
               1          2
     1  H    0.345747   0.000585
     2  H    0.003467   0.995843
     3  F   -0.349214   0.003573
 Sum of Mulliken charges =   0.00000   1.00000

 Dipole moment (field-independent basis, Debye):
    X=             -2.2694    Y=              0.0000    Z=             -0.0000  Tot=              2.2694
 Quadrupole moment (field-independent basis, Debye-Ang):
   XX=             -8.5852   YY=             -7.0887   ZZ=             -7.0887
   XY=              0.0000   XZ=             -0.0000   YZ=              0.0000

  Exact polarizability:       9.818      -0.000       2.353      -0.000       0.000       2.353
 Approx polarizability:      12.824       0.000       2.314       0.000       0.000       2.314

 ******    1 imaginary frequencies (negative Signs) ******

                      1                      2                      3
                      A                      A                      A
 Frequencies --    -95.3044              1197.3727              1197.3727
 Red. masses --      1.0524                 1.0324                 1.0324
 Frc consts  --      0.0056                 0.8720                 0.8720
 IR Inten    --      0.5361               146.5076               146.5076

                      4
                      A
 Frequencies --   1457.4871
 Red. masses --      1.0591
 Frc consts  --      1.3256
 IR Inten    --     86.5603

 - Thermochemistry -
 -------------------
 Temperature   298.150 Kelvin.  Pressure   1.00000 Atm.
 Atom     1 has atomic number  1 and mass   1.00783

 Molecular mass:    21.01405 amu.
 Principal axes and moments of inertia in atomic units:
                           1         2         3
     Eigenvalues --     0.00000  61.89509  61.89509
           X            1.00000  -0.00000   0.00000
           Y            0.00000   1.00000   0.00000
           Z            0.00000   0.00000   1.00000
 This molecule is a prolate symmetric top.
 Rotational symmetry number  1.
 Rotational temperature (Kelvin)      1.39937
 Rotational constant (GHZ):          29.158070
    1 imaginary frequencies ignored.
 Zero-point vibrational energy      23041.5 (Joules/Mol)
                                    5.50704 (Kcal/Mol)
 Vibrational temperatures:   1722.75  1722.75  2097.00
          (Kelvin)

 Zero-point correction=                           0.008776 (Hartree/Particle)
 Thermal correction to Energy=                    0.011176
 Thermal correction to Enthalpy=                  0.012120
 Thermal correction to Gibbs Free Energy=        -0.011249
 Sum of electronic and zero-point Energies=           -100.928743
 Sum of electronic and thermal Energies=              -100.926343
 Sum of electronic and thermal Enthalpies=            -100.925399
 Sum of electronic and thermal Free Energies=         -100.948768

                     E (Thermal)             CV                S
                      KCal/Mol        Cal/Mol-Kelvin    Cal/Mol-Kelvin
 Total                    7.013              5.468             49.185
 Electronic               0.000              0.000              1.377
 Translational            0.889              2.981             35.068
 Rotational               0.592              1.987             12.642
 Vibrational              5.532              0.500              0.098

 Normal termination of Gaussian 16 at Fri Aug 22 16:08:24 2025.
