 Gaussian 16, Revision C.01,
 Gaussian 16:  ES64L-G16RevC.01  3-Jul-2019

 -----------------------------------------
 # sp b3lyp/6-311g** Force nosymm scf=(qc)
 -----------------------------------------

 -------------------
 Title Card Required
 -------------------
 Symbolic Z-matrix:
 Charge =  0 Multiplicity = 2

                          Input orientation:
 ---------------------------------------------------------------------
 Center     Atomic      Atomic             Coordinates (Angstroms)
 Number     Number       Type             X           Y           Z
 ---------------------------------------------------------------------
      1          1           0        0.000000    0.000000    0.000000
      2          1           0       -3.150000    0.000000    0.000000
      3          9           0        3.200000    0.000000    0.000000
 ---------------------------------------------------------------------

 SCF Done:  E(UB3LYP) =  -100.760486519     a.u. after   24 cycles

 Alpha  occ. eigenvalues --  -24.74733  -1.20744  -0.53853  -0.45217  -0.45217
 Alpha  occ. eigenvalues --   -0.32532
 Alpha virt. eigenvalues --   -0.08208   0.24572   0.35801   0.88690   0.91883
 Alpha virt. eigenvalues --    0.91883   1.02883   1.24991   1.24991   1.25488
 Alpha virt. eigenvalues --    1.43657   1.43657   1.43774   2.15408   2.39875

  Beta  occ. eigenvalues --  -24.71662  -1.11931  -0.42141  -0.42141  -0.33317
  Beta virt. eigenvalues --   -0.25139  -0.07210   0.24415   0.37178   0.93359
  Beta virt. eigenvalues --    0.93359   0.97612   1.06771   1.24076   1.24076
  Beta virt. eigenvalues --    1.24567   1.45042   1.45220   1.45220   2.15851

 Mulliken charges and spin densities:
               1          2
     1  H    0.023318  -0.968452
     2  H    0.000792   0.994967
     3  F   -0.024109   0.973486
 Sum of Mulliken charges =  -0.00000   1.00000

 Dipole moment (field-independent basis, Debye):
    X=             -0.4084    Y=              0.0000    Z=             -0.0000  Tot=              0.4084
 Quadrupole moment (field-independent basis, Debye-Ang):
   XX=             -7.8497   YY=             -7.6240   ZZ=             -7.6240
   XY=              0.0000   XZ=             -0.0000   YZ=              0.0000

  Exact polarizability:      31.649       0.000       2.026      -0.000       0.000       2.026
 Approx polarizability:      28.364       0.000       1.928      -0.000      -0.000       1.928

 ******    2 imaginary frequencies (negative Signs) ******

                      1                      2                      3
                      A                      A                      A
 Frequencies --   -359.5036              -152.1686               127.4245
 Red. masses --      1.0243                 1.0892                 1.0178
 Frc consts  --      0.0780                 0.0149                 0.0097
 IR Inten    --     23.0415                 3.8981                 0.4835

                      4
                      A
 Frequencies --    127.4245
 Red. masses --      1.0178
 Frc consts  --      0.0097
 IR Inten    --      0.4835

 - Thermochemistry -
 -------------------
 Temperature   298.150 Kelvin.  Pressure   1.00000 Atm.
 Atom     1 has atomic number  1 and mass   1.00783

 Molecular mass:    21.01405 amu.
 Principal axes and moments of inertia in atomic units:
                           1         2         3
     Eigenvalues --     0.00000 166.23269 166.23269
           X            1.00000  -0.00000   0.00000
           Y            0.00000   1.00000   0.00000
           Z            0.00000   0.00000   1.00000
 This molecule is a prolate symmetric top.
 Rotational symmetry number  1.
 Rotational temperature (Kelvin)      0.52104
 Rotational constant (GHZ):          10.856717
    2 imaginary frequencies ignored.
 Zero-point vibrational energy       1524.3 (Joules/Mol)
                                    0.36432 (Kcal/Mol)
 Warning -- explicit consideration of   2 degrees of freedom as
           vibrations may cause significant error
 Vibrational temperatures:    183.34   183.34
          (Kelvin)

 Zero-point correction=                           0.000581 (Hartree/Particle)
 Thermal correction to Energy=                    0.004308
 Thermal correction to Enthalpy=                  0.005252
 Thermal correction to Gibbs Free Energy=        -0.021840
 Sum of electronic and zero-point Energies=           -100.759906
 Sum of electronic and thermal Energies=              -100.756179
 Sum of electronic and thermal Enthalpies=            -100.755234
 Sum of electronic and thermal Free Energies=         -100.782326

                     E (Thermal)             CV                S
                      KCal/Mol        Cal/Mol-Kelvin    Cal/Mol-Kelvin
 Total                    2.703              8.820             57.020
 Electronic               0.000              0.000              1.377
 Translational            0.889              2.981             35.068
 Rotational               0.592              1.987             14.605
 Vibrational              1.222              3.852              5.969
 Vibration     1          0.611              1.926              2.985
 Vibration     2          0.611              1.926              2.985

 Normal termination of Gaussian 16 at Fri Aug 22 20:24:32 2025.
