 Gaussian 16, Revision C.01,
 Gaussian 16:  ES64L-G16RevC.01  3-Jul-2019

 -----------------------------------------
 # sp b3lyp/6-311g** Force nosymm scf=(qc)
 -----------------------------------------

 -------------------
 Title Card Required
 -------------------
 Symbolic Z-matrix:
 Charge =  0 Multiplicity = 2

                          Input orientation:
 ---------------------------------------------------------------------
 Center     Atomic      Atomic             Coordinates (Angstroms)
 Number     Number       Type             X           Y           Z
 ---------------------------------------------------------------------
      1          1           0        0.000000    0.000000    0.000000
      2          1           0       -1.900000    0.000000    0.000000
      3          9           0        0.650000    0.000000    0.000000
 ---------------------------------------------------------------------

 SCF Done:  E(UB3LYP) =  -100.799749629     a.u. after    7 cycles

 Alpha  occ. eigenvalues --  -24.62852  -1.31273  -0.59935  -0.42282  -0.42282
 Alpha  occ. eigenvalues --   -0.35368
 Alpha virt. eigenvalues --    0.11198   0.23847   0.52349   0.92928   0.92928
 Alpha virt. eigenvalues --    0.95137   1.21049   1.21859   1.21859   1.47223
 Alpha virt. eigenvalues --    1.47223   1.57298   1.98604   2.17718   3.11349

  Beta  occ. eigenvalues --  -24.62813  -1.31157  -0.59754  -0.42255  -0.42255
  Beta virt. eigenvalues --   -0.10545   0.12631   0.34287   0.53953   0.92931
  Beta virt. eigenvalues --    0.92931   0.95261   1.30071   1.40912   1.40912
  Beta virt. eigenvalues --    1.48107   1.48107   1.65353   2.01619   2.42157

 Mulliken charges and spin densities:
               1          2
     1  H    0.237618   0.011215
     2  H    0.010632   0.982996
     3  F   -0.248249   0.005789
 Sum of Mulliken charges =   0.00000   1.00000

 Dipole moment (field-independent basis, Debye):
    X=             -1.5919    Y=              0.0000    Z=              0.0000  Tot=              1.5919
 Quadrupole moment (field-independent basis, Debye-Ang):
   XX=             -6.8807   YY=             -6.5681   ZZ=             -6.5681
   XY=              0.0000   XZ=              0.0000   YZ=              0.0000

  Exact polarizability:       6.266       0.000       2.498       0.000      -0.000       2.498
 Approx polarizability:       6.112      -0.000       2.493      -0.000      -0.000       2.493

 ******    2 imaginary frequencies (negative Signs) ******

                      1                      2                      3
                      A                      A                      A
 Frequencies --  -4517.2039             -4517.2039               429.1768
 Red. masses --      1.0342                 1.0342                 1.0533
 Frc consts  --     12.4333                12.4333                 0.1143
 IR Inten    --    185.4675               185.4675                 0.0001

                      4
                      A
 Frequencies --  10871.0846
 Red. masses --      1.0583
 Frc consts  --     73.6863
 IR Inten    --    132.1063

 - Thermochemistry -
 -------------------
 Temperature   298.150 Kelvin.  Pressure   1.00000 Atm.
 Atom     1 has atomic number  1 and mass   1.00783

 Molecular mass:    21.01405 amu.
 Principal axes and moments of inertia in atomic units:
                           1         2         3
     Eigenvalues --     0.00000  23.15564  23.15564
           X            1.00000  -0.00000   0.00000
           Y            0.00000   1.00000   0.00000
           Z            0.00000   0.00000   1.00000
 This molecule is a prolate symmetric top.
 Rotational symmetry number  1.
 Rotational temperature (Kelvin)      3.74051
 Rotational constant (GHZ):          77.939597
    2 imaginary frequencies ignored.
 Zero-point vibrational energy      67590.6 (Joules/Mol)
                                   16.15453 (Kcal/Mol)
 Warning -- explicit consideration of   1 degrees of freedom as
           vibrations may cause significant error
 Vibrational temperatures:    617.49 15641.07
          (Kelvin)

 Zero-point correction=                           0.025744 (Hartree/Particle)
 Thermal correction to Energy=                    0.028386
 Thermal correction to Enthalpy=                  0.029331
 Thermal correction to Gibbs Free Energy=         0.006527
 Sum of electronic and zero-point Energies=           -100.774006
 Sum of electronic and thermal Energies=              -100.771363
 Sum of electronic and thermal Enthalpies=            -100.770419
 Sum of electronic and thermal Free Energies=         -100.793223

                     E (Thermal)             CV                S
                      KCal/Mol        Cal/Mol-Kelvin    Cal/Mol-Kelvin
 Total                   17.813              6.375             47.995
 Electronic               0.000              0.000              1.377
 Translational            0.889              2.981             35.068
 Rotational               0.592              1.987             10.688
 Vibrational             16.332              1.407              0.861
 Vibration     1          0.791              1.407              0.861

 Normal termination of Gaussian 16 at Fri Aug 22 15:44:00 2025.
